LAMMPS data file from restart file: timestep = 5000002, procs = 8

512 atoms

1 atom types

-2.9757839621163740e-02 2.1757794459373002e+01 xlo xhi
-2.9904750765219035e-02 2.1757941370517401e+01 ylo yhi
0.0000000000000000e+00 2.1728036620000001e+01 zlo zhi

Masses

1 28.0855

Atoms

6 1 1.3052486420635832e+00 1.3473095473640408e+00 1.4046399458394767e+00 0 0 0
3 1 2.7753762062559213e+00 2.6184682295737827e+00 2.1721750329260093e+01 0 0 -1
8 1 3.9584722530123875e+00 4.0674290688799832e+00 1.3887566978464854e+00 0 0 0
22 1 1.3695570421970522e+00 6.7356720684223399e+00 1.2528260393113770e+00 0 0 0
20 1 2.6454092459917389e+00 5.4789115413753224e+00 2.6731714492741339e+00 0 0 0
258 1 5.3466343885020251e-02 2.7244934246169557e+00 1.3608943323049528e+01 0 0 0
287 1 1.3551435139962900e+00 9.5188164921077654e+00 2.0334681800117163e+01 0 0 0
24 1 4.0771911034353945e+00 9.5301895656911846e+00 1.3031580904322329e+00 0 0 0
5 1 4.0976452421359921e+00 1.2886627112812703e+00 4.0649573956245266e+00 0 0 0
11 1 2.7021305045242285e+00 2.6524619210032441e+00 5.4753463076447373e+00 0 0 0
7 1 1.3714474302245738e+00 4.0251638007296382e+00 4.1309617978513806e+00 0 0 0
27 1 2.7899326642904474e+00 8.2898809950465999e+00 5.4698990007329753e+00 0 0 0
25 1 2.1930484360179370e-04 5.4169147744272523e+00 5.5332250605935869e+00 0 0 0
21 1 4.0847639838504302e+00 6.9215385939713272e+00 3.9820232414825449e+00 0 0 0
23 1 1.3565227913280467e+00 9.4394120032013582e+00 3.9248854237258204e+00 0 0 0
10 1 -2.6729220878610960e-02 2.7238869294498320e+00 8.2563393248474668e+00 0 0 0
14 1 1.2828640284023631e+00 1.3273952071974195e+00 6.9670281080784981e+00 0 0 0
12 1 2.6681722211204328e+00 3.9521614291693728e-02 8.2349204307707016e+00 0 0 0
285 1 4.0581344422615624e+00 6.7425639588733475e+00 2.0308930035112247e+01 0 0 0
16 1 4.1240201685488405e+00 4.0836201942707939e+00 6.7092415344450886e+00 0 0 0
28 1 2.6874519872918623e+00 5.4268916925034327e+00 8.0538197477048019e+00 0 0 0
30 1 1.3719786976818162e+00 6.9822696306515422e+00 6.7718970180416393e+00 0 0 0
137 1 3.5646658695736022e-02 1.0802711060921318e+01 5.3782299335812329e+00 0 0 0
32 1 4.1831855005731153e+00 9.5121994820347755e+00 6.7840815914924892e+00 0 0 0
19 1 2.7342712770440962e+00 8.1825972753836975e+00 2.1671627591498211e+01 0 0 -1
13 1 4.0271564406389180e+00 1.3870225468013171e+00 9.5338549993335793e+00 0 0 0
15 1 1.3430861725165406e+00 4.1115057781420017e+00 9.4243924870216880e+00 0 0 0
259 1 2.6567239970394430e+00 2.8317159328754711e+00 1.0902212779906368e+01 0 0 0
284 1 2.6838654568093081e+00 5.2889096617790443e+00 1.8979175637851821e+01 0 0 0
271 1 1.2845151879189949e+00 3.9552913614403584e+00 2.0453570222124881e+01 0 0 0
29 1 4.0050055735848540e+00 6.7253893717433364e+00 9.4986558569222748e+00 0 0 0
31 1 1.3606343822000708e+00 9.5590222938122711e+00 9.5472533990615034e+00 0 0 0
266 1 1.2275729040843694e-02 2.6125569281883418e+00 1.9050304657616035e+01 0 0 0
262 1 1.2930099634439070e+00 1.4370076400707832e+00 1.2218516995772564e+01 0 0 0
260 1 2.7207530615371169e+00 1.1326854966318467e-01 1.3686745827612325e+01 0 0 0
264 1 4.0307334550206182e+00 4.1250318727272974e+00 1.2341872830220121e+01 0 0 0
278 1 1.2205624537760362e+00 6.7358240798796567e+00 1.2152679529335906e+01 0 0 0
275 1 2.7344460647829933e+00 8.1269312774437310e+00 1.0901881672532701e+01 0 0 0
274 1 -6.0495181184313700e-03 8.2262951241311697e+00 1.3502906366074766e+01 0 0 0
269 1 4.1148945893706994e+00 1.3516748614228342e+00 2.0433475270384832e+01 0 0 0
280 1 4.0886822587668883e+00 9.4508339712016767e+00 1.2252395879939550e+01 0 0 0
261 1 4.1464791089853250e+00 1.4526356910197746e+00 1.4990150872794988e+01 0 0 0
297 1 5.3616410906817089e+00 8.7122322052776650e-03 1.6359118297896881e+01 0 0 0
263 1 1.2612110501139471e+00 4.1294434957625379e+00 1.4970295874510311e+01 0 0 0
276 1 2.6219813830725416e+00 5.4563215463383745e+00 1.3638649748364383e+01 0 0 0
277 1 4.0324590268590512e+00 6.8371206462456593e+00 1.5030718330915274e+01 0 0 0
279 1 1.2362801302331732e+00 9.5572746747896407e+00 1.4921565413856568e+01 0 0 0
270 1 1.3397594475924348e+00 1.4735221379834844e+00 1.7613421037929005e+01 0 0 0
267 1 2.7130977623992591e+00 2.8095678223928653e+00 1.6257693037079481e+01 0 0 0
268 1 2.6720548611116697e+00 7.3478628224883713e-02 1.9068551541582316e+01 0 0 0
272 1 4.1344612689981419e+00 4.0522029403098099e+00 1.7612545650798086e+01 0 0 0
283 1 2.5282871971930923e+00 8.2542915207878753e+00 1.6382789587212169e+01 0 0 0
286 1 1.2676937662853986e+00 6.6582579372752768e+00 1.7745068696957002e+01 0 0 0
314 1 5.3431853007620482e+00 8.2589874947470285e+00 1.9041552894606429e+01 0 0 0
288 1 3.9019344136047618e+00 9.5254197011558031e+00 1.7631220537359951e+01 0 0 0
34 1 5.3525089360419607e+00 2.6624961171231387e+00 2.7333986789831459e+00 0 0 0
58 1 5.3992931062866010e+00 8.1353805910996098e+00 8.2022352755148020e+00 0 0 0
305 1 5.3801928709290436e+00 5.3558939771887681e+00 1.0788564594558732e+01 0 0 0
49 1 5.3966690428071136e+00 5.2676264753748079e+00 2.1638330524003059e+01 0 0 -1
18 1 1.4298364389887297e-02 8.0266883950907459e+00 2.6155461297579032e+00 0 0 0
2 1 3.2061868913793035e-02 2.6665353695227365e+00 2.7671066683727479e+00 0 0 0
9 1 2.1891651842640900e-02 2.4293426477843383e-02 5.4626141338818677e+00 0 0 0
425 1 5.3350217878299624e+00 1.0788706879868386e+01 1.6227950718141319e+01 0 0 0
289 1 5.3762526036929410e+00 -2.6660223756689305e-02 1.0921542149519665e+01 0 0 0
134 1 1.2918981065721671e+00 1.2203353815817325e+01 1.3043558336878254e+00 0 0 0
131 1 2.5834836334994962e+00 1.3538081187801916e+01 2.1625005246127120e+01 0 0 -1
161 1 5.3747549713460741e+00 1.1005997042582148e+01 2.1716842697538901e+01 0 0 -1
136 1 3.9779001264885672e+00 1.4856084620310488e+01 1.3093728694377735e+00 0 0 0
150 1 1.4449735538880928e+00 1.7702782274289074e+01 1.3620289589940295e+00 0 0 0
415 1 1.2994234255092261e+00 2.0396415454833818e+01 2.0373431015294376e+01 0 0 0
147 1 2.6797419272901108e+00 1.9021753842247556e+01 2.1671028908963756e+01 0 0 -1
152 1 4.1512513819237640e+00 2.0276035166103956e+01 1.2999911660144443e+00 0 0 0
133 1 4.0646454749885796e+00 1.2171500249129108e+01 4.0453681762638780e+00 0 0 0
135 1 1.3699288449807481e+00 1.4944516159219319e+01 3.9975086029564948e+00 0 0 0
148 1 2.8133086309058322e+00 1.6279557309205313e+01 2.7115975566352719e+00 0 0 0
153 1 5.1666152619527117e-02 1.6317349379623383e+01 5.4117932595900626e+00 0 0 0
149 1 4.0585190970128036e+00 1.7640371014503408e+01 4.1056308552152032e+00 0 0 0
151 1 1.3242376784051639e+00 2.0384500659458890e+01 3.9880132218332291e+00 0 0 0
401 1 4.9183740972580381e-04 1.6426161829061478e+01 1.0908155358391319e+01 0 0 0
4 1 2.7582676034262965e+00 2.1708799015707342e+01 2.6326723651946495e+00 0 -1 0
142 1 1.3462265505203836e+00 1.2184793179379895e+01 6.7210939378022552e+00 0 0 0
139 1 2.5807743683705802e+00 1.3549548167126526e+01 5.2655899326755664e+00 0 0 0
144 1 4.0116920987269387e+00 1.4843007900932026e+01 6.7452063752964468e+00 0 0 0
158 1 1.3272528223967144e+00 1.7767219798544662e+01 6.8175459005792014e+00 0 0 0
155 1 2.6557112825160472e+00 1.9013445668112148e+01 5.3963519895365613e+00 0 0 0
160 1 3.9207183369665599e+00 2.0387016040326266e+01 6.8422313622028126e+00 0 0 0
413 1 4.0476235514354997e+00 1.7590759640085643e+01 2.0425838970924996e+01 0 0 0
141 1 4.1412164049155544e+00 1.2303285421511596e+01 9.4979070777099022e+00 0 0 0
170 1 5.3943750667572985e+00 1.3636735107653061e+01 8.1568283237665113e+00 0 0 0
143 1 1.3226723167458305e+00 1.5005032586819384e+01 9.5702734604956898e+00 0 0 0
387 1 2.7590345475642999e+00 1.3661416270417320e+01 1.0865669343879357e+01 0 0 0
156 1 2.6297891327676290e+00 1.6285446852631281e+01 8.1092363999628034e+00 0 0 0
157 1 3.9992965333097921e+00 1.7711086435812120e+01 9.4731256086789202e+00 0 0 0
177 1 5.3803544725634804e+00 1.6199453134930458e+01 2.1715428325655765e+01 0 0 -1
159 1 1.2702982158899565e+00 2.0420927706973064e+01 9.5145303726721693e+00 0 0 0
390 1 1.4140361031109823e+00 1.2262614581986172e+01 1.2131534065407635e+01 0 0 0
388 1 2.7367057564778006e+00 1.0930390512877198e+01 1.3482814369375854e+01 0 0 0
386 1 3.8685623431763475e-02 1.3649767754803740e+01 1.3539461064827249e+01 0 0 0
392 1 3.9820148103432818e+00 1.5115472113419489e+01 1.2189242624281382e+01 0 0 0
404 1 2.6825136447918854e+00 1.6389262480456974e+01 1.3601118103800820e+01 0 0 0
403 1 2.7123356939647159e+00 1.9068190040594871e+01 1.0885088925638184e+01 0 0 0
406 1 1.3233102226086384e+00 1.7801697409427206e+01 1.2315703823521988e+01 0 0 0
408 1 4.0007069689782657e+00 2.0480214071856921e+01 1.2281627735711803e+01 0 0 0
389 1 4.0736880870488212e+00 1.2262289827929635e+01 1.4921131259397912e+01 0 0 0
391 1 1.4387165587381290e+00 1.4924377646979654e+01 1.4933489281998190e+01 0 0 0
411 1 2.7017561458396235e+00 1.9143671255976436e+01 1.6357992292127157e+01 0 0 0
405 1 4.1086419176732623e+00 1.7737469437971598e+01 1.4938281772573619e+01 0 0 0
412 1 2.5596652648288529e+00 1.6325263268588206e+01 1.9021955406244597e+01 0 0 0
399 1 1.2192811916667008e+00 1.4886606934978417e+01 2.0363133422787921e+01 0 0 0
407 1 1.3585323316789066e+00 2.0437270020377891e+01 1.4957888994275963e+01 0 0 0
398 1 1.3633515892714227e+00 1.2270381084154025e+01 1.7626877655133267e+01 0 0 0
397 1 3.9122502620401867e+00 1.2296886102882457e+01 2.0212650242430527e+01 0 0 0
138 1 5.1397073788152170e-02 1.3591865918414175e+01 8.2451596328983179e+00 0 0 0
441 1 5.3557290276678762e+00 1.6337568698198584e+01 1.6246362971700542e+01 0 0 0
395 1 2.7200123621657673e+00 1.3560757430287628e+01 1.6305768036137344e+01 0 0 0
400 1 3.9804392114210456e+00 1.4986199975452887e+01 1.7662671935207666e+01 0 0 0
409 1 9.0481447778045412e-02 1.6424463781449031e+01 1.6265051307561492e+01 0 0 0
414 1 1.3374258194784840e+00 1.7693936808224869e+01 1.7678471951205701e+01 0 0 0
416 1 4.0379044876719243e+00 2.0445010339310745e+01 1.7717865562851841e+01 0 0 0
442 1 5.3666029059388141e+00 1.8998507430785128e+01 1.9018325115383142e+01 0 0 0
396 1 2.6754932770083286e+00 1.0880824225320653e+01 1.8946301615139454e+01 0 0 0
162 1 5.3721898477650241e+00 1.3648958277146294e+01 2.7046476264891632e+00 0 0 0
185 1 5.3876094791379989e+00 1.6268340304279974e+01 5.4219196813915698e+00 0 0 0
41 1 5.3513036411922048e+00 2.1716274354754862e+01 5.4918766803123287e+00 0 -1 0
186 1 5.2991038474570029e+00 1.8991453901744599e+01 8.0443716850917060e+00 0 0 0
154 1 -2.7753942367631623e-02 1.9148489371733799e+01 8.1230924056891194e+00 0 0 0
418 1 5.3039824369391555e+00 1.3755842038816256e+01 1.3557895596903139e+01 0 0 0
145 1 8.4323626416576758e-02 1.6241745735774209e+01 2.1711003859846095e+01 0 0 -1
129 1 3.1565037904090348e-02 1.0936661542751851e+01 2.1631206129263553e+01 0 0 -1
132 1 2.7743230650240771e+00 1.0895659124227681e+01 2.5714790833190206e+00 0 0 0
140 1 2.7719507048357266e+00 1.0885707879307311e+01 8.2111084735396318e+00 0 0 0
38 1 6.7905178411204554e+00 1.2981906460872132e+00 1.3936216093563367e+00 0 0 0
319 1 6.7768153617968867e+00 9.6710273666075022e+00 2.0371029572117866e+01 0 0 0
40 1 9.5355034890814139e+00 3.9885175167630202e+00 1.3986106928636168e+00 0 0 0
54 1 6.7997952569892339e+00 6.7044539488852175e+00 1.2793867868925890e+00 0 0 0
51 1 8.0025693523428671e+00 8.1668986721971173e+00 2.1619902955372332e+01 0 0 -1
56 1 9.4761272727009018e+00 9.4547259417362053e+00 1.2550414773175149e+00 0 0 0
164 1 8.1628740907724779e+00 1.0854758464287316e+01 2.7392013608444912e+00 0 0 0
43 1 8.0606252772186036e+00 2.7103301465718186e+00 5.3908638533900337e+00 0 0 0
37 1 9.4801496992493135e+00 1.2581271343432336e+00 4.1442228059447048e+00 0 0 0
39 1 6.7660077938095924e+00 4.0148329717677154e+00 3.9524165520165164e+00 0 0 0
52 1 8.0830973304138691e+00 5.3335414256324221e+00 2.6548043242409878e+00 0 0 0
317 1 9.4434387165857157e+00 6.7787190633642380e+00 2.0347450572071992e+01 0 0 0
57 1 5.4790581675946877e+00 5.4813328727052104e+00 5.3398877848392621e+00 0 0 0
53 1 9.4509601186361163e+00 6.7387456182254200e+00 4.0058279012300586e+00 0 0 0
55 1 6.9244497923315764e+00 9.4453340847073548e+00 4.0601147862455083e+00 0 0 0
46 1 6.7772672728682668e+00 1.1785094421570246e+00 6.7495900968830655e+00 0 0 0
48 1 9.4564471834876755e+00 4.0680738136729051e+00 6.7281402352269675e+00 0 0 0
62 1 6.7279420227955287e+00 6.8804941625399367e+00 6.8005650280798271e+00 0 0 0
35 1 8.2029051883096287e+00 2.6908270374888623e+00 7.7872394225359187e-02 0 0 0
59 1 8.2702206265089266e+00 8.1103051572945066e+00 5.5150004901906451e+00 0 0 0
64 1 9.5410481770466689e+00 9.5862034033733519e+00 6.9247881341795230e+00 0 0 0
306 1 5.4685594812021678e+00 8.0987001888608692e+00 1.3628119092989682e+01 0 0 0
45 1 9.4020519734272714e+00 1.2959164432041463e+00 9.5039560540339352e+00 0 0 0
47 1 6.7611449495746845e+00 4.0372213588006165e+00 9.3857609510129194e+00 0 0 0
291 1 8.0712142377938871e+00 2.7035549012296185e+00 1.0917654898211639e+01 0 0 0
60 1 8.0798815220193880e+00 5.4449905079849650e+00 8.0623523800402417e+00 0 0 0
298 1 5.4560802653009084e+00 2.6949250821475697e+00 1.8989081468467926e+01 0 0 0
337 1 1.0783622189812998e+01 5.3025987348832295e+00 1.0885638201770579e+01 0 0 0
61 1 9.4765936720092459e+00 6.7456209939920031e+00 9.5209158582093405e+00 0 0 0
63 1 6.7671817581021330e+00 9.4461615251619939e+00 9.5958608134717984e+00 0 0 0
307 1 8.1718954897432603e+00 8.1193436296029571e+00 1.0837592031394045e+01 0 0 0
90 1 1.0785401787327920e+01 8.0930968872086790e+00 8.1745243735392794e+00 0 0 0
290 1 5.4391300945631107e+00 2.7787332571800318e+00 1.3707387940808333e+01 0 0 0
294 1 6.7426353401748935e+00 1.3488382540079602e+00 1.2307463300493897e+01 0 0 0
308 1 8.2037224239414499e+00 5.3892131381576123e+00 1.3553666382688771e+01 0 0 0
296 1 9.4858017754901098e+00 3.9583149327112155e+00 1.2223397003161965e+01 0 0 0
310 1 6.8454419633712833e+00 6.7415266855387124e+00 1.2219405708437298e+01 0 0 0
420 1 8.1156576846829331e+00 1.0797125418529861e+01 1.3631787827167580e+01 0 0 0
312 1 9.4951248884513930e+00 9.3823857966126685e+00 1.2246819522142717e+01 0 0 0
169 1 5.4882722502333419e+00 1.0848629689960307e+01 5.3678186460042525e+00 0 0 0
293 1 9.5476579121379821e+00 1.3536114482361661e+00 1.4998578131599196e+01 0 0 0
295 1 6.7875931592459118e+00 4.1387601304705708e+00 1.5046549685257016e+01 0 0 0
299 1 8.1238291861588259e+00 2.6958950887993192e+00 1.6302615854924017e+01 0 0 0
338 1 1.0803111055848460e+01 8.0833144023090018e+00 1.3577518172599330e+01 0 0 0
309 1 9.5543015959628015e+00 6.7393466844322267e+00 1.4988231456769858e+01 0 0 0
315 1 8.1040963864454074e+00 8.1305442845936238e+00 1.6353132017453099e+01 0 0 0
311 1 6.7747883926946972e+00 9.5273178766945730e+00 1.4985591712925663e+01 0 0 0
302 1 6.7177628165320522e+00 1.3616666370257748e+00 1.7714153459040649e+01 0 0 0
313 1 5.4294618556721561e+00 5.5418570608268771e+00 1.6313364704401774e+01 0 0 0
304 1 9.4049946368309083e+00 4.0689630166966948e+00 1.7667653396619549e+01 0 0 0
345 1 1.0859292115448103e+01 5.4575159296530700e+00 1.6391489394841177e+01 0 0 0
318 1 6.7790736585909537e+00 6.8889310899276115e+00 1.7731235802997837e+01 0 0 0
316 1 8.0831804492814516e+00 5.4240082345863261e+00 1.9036193386314874e+01 0 0 0
42 1 5.4473217437210586e+00 2.6424936044042444e+00 8.0581430378489998e+00 0 0 0
320 1 9.4062751051480351e+00 9.5992755049997243e+00 1.7669487489490493e+01 0 0 0
50 1 5.4920822349929646e+00 8.2523959125043902e+00 2.6845068395065463e+00 0 0 0
301 1 9.5078706467731635e+00 1.3003909110642904e+00 2.0366204483654140e+01 0 0 0
303 1 6.8585948470564944e+00 4.0370564535319868e+00 2.0347882211987859e+01 0 0 0
89 1 1.0847264651985352e+01 5.3781125828821663e+00 5.3900270483848471e+00 0 0 0
82 1 1.0854953828270554e+01 8.1963080494639460e+00 2.7305283873414257e+00 0 0 0
74 1 1.0666978916101373e+01 2.6520066051746416e+00 8.1114156904834669e+00 0 0 0
346 1 1.0847277371638540e+01 8.1607199493531386e+00 1.8989830206150813e+01 0 0 0
322 1 1.0860977036297445e+01 2.6976225456963747e+00 1.3596095766237912e+01 0 0 0
81 1 1.0857213743299859e+01 5.3794343485808582e+00 3.6922585588936130e-02 0 0 0
36 1 8.0555400364083507e+00 -9.2094235409945213e-04 2.8342724921773450e+00 0 0 0
172 1 8.1800922205753661e+00 1.0856947129986587e+01 8.2610834134272029e+00 0 0 0
449 1 1.0838859474706330e+01 1.0818410830027087e+01 1.0881937599091806e+01 0 0 0
201 1 1.0835388687278561e+01 1.0844422444881227e+01 5.5646217508069631e+00 0 0 0
166 1 6.7848639786077705e+00 1.2298402886478929e+01 1.4213661883758397e+00 0 0 0
300 1 8.1438110042040481e+00 2.1695633659654167e+01 1.8938703547833018e+01 0 -1 0
163 1 8.2139087038101302e+00 1.3543631856552871e+01 4.2646894214694392e-02 0 0 0
180 1 8.1495482082061965e+00 1.6272569381384251e+01 2.6690548254490003e+00 0 0 0
168 1 9.5036098855713824e+00 1.4996040698510180e+01 1.2631892406128808e+00 0 0 0
182 1 6.8196719398624186e+00 1.7584544212570940e+01 1.3184741748999427e+00 0 0 0
33 1 5.4813560049789567e+00 2.1752015532064178e+01 2.1682447562099167e+01 0 -1 -1
433 1 5.4394708074652343e+00 1.6395887860820213e+01 1.0872162534122429e+01 0 0 0
184 1 9.4091472071808155e+00 2.0384478420475141e+01 1.3522570306796899e+00 0 0 0
171 1 8.1365790362594019e+00 1.3587921043661078e+01 5.4299113003910140e+00 0 0 0
447 1 6.7582099574516059e+00 2.0340041648659273e+01 2.0271690753119547e+01 0 0 0
165 1 9.5400819025294883e+00 1.2209937128539822e+01 4.0400712655150119e+00 0 0 0
167 1 6.7320437759116984e+00 1.4926742934288690e+01 4.0410236122489014e+00 0 0 0
444 1 8.0639090193265499e+00 1.6229489362160194e+01 1.8919064713940887e+01 0 0 0
210 1 1.0773727455069569e+01 1.9052754964454358e+01 2.7041969161925139e+00 0 0 0
181 1 9.5090306198067704e+00 1.7709787455049128e+01 4.1252739456593224e+00 0 0 0
183 1 6.6648163904363278e+00 2.0366491495317149e+01 4.1104542244528535e+00 0 0 0
179 1 8.1488233893714952e+00 1.8967761004208846e+01 2.1714421622152880e+01 0 0 -1
187 1 8.1157805425406568e+00 1.9032353586046813e+01 5.3811107394078164e+00 0 0 0
174 1 6.8355879018971111e+00 1.2111734655185977e+01 6.7790260672538114e+00 0 0 0
178 1 5.4357210048801825e+00 1.8970901267432801e+01 2.7061862834135324e+00 0 0 0
188 1 8.1541678354378302e+00 1.6298632375736194e+01 8.2256973714030046e+00 0 0 0
176 1 9.6258651569604119e+00 1.4976899520566487e+01 6.8316547184118521e+00 0 0 0
445 1 9.4802809859908201e+00 1.7614138691639372e+01 2.0307218874759670e+01 0 0 0
190 1 6.6802022852010365e+00 1.7599159337863028e+01 6.7976334373952305e+00 0 0 0
192 1 9.5144656762321063e+00 2.0331260262509591e+01 6.8313740562215415e+00 0 0 0
73 1 1.0832618186181127e+01 2.1744265089910524e+01 5.5001486935884873e+00 0 -1 0
173 1 9.5172010626613179e+00 1.2240277253825544e+01 9.5600707649605372e+00 0 0 0
175 1 6.9275011014165395e+00 1.4977206746784766e+01 9.6340151817368955e+00 0 0 0
419 1 8.2025991256327924e+00 1.3606134060263992e+01 1.0935545358260704e+01 0 0 0
189 1 9.5392835544284740e+00 1.7769099715846647e+01 9.5870560151810906e+00 0 0 0
426 1 5.4347702724431555e+00 1.3512499320505906e+01 1.8893319519343923e+01 0 0 0
191 1 6.6940755032019119e+00 2.0440856938224936e+01 9.4579398104923644e+00 0 0 0
431 1 6.7893567356851765e+00 1.4819238246624391e+01 2.0274047080995611e+01 0 0 0
422 1 6.7830380728011832e+00 1.2291321910480509e+01 1.2281272802185452e+01 0 0 0
474 1 1.0812834482524854e+01 1.9039081513317779e+01 1.9070255564343686e+01 0 0 0
429 1 9.5419498083345982e+00 1.2239754642952693e+01 2.0382450987134977e+01 0 0 0
424 1 9.5814191570959331e+00 1.4918807198045474e+01 1.2272148640316775e+01 0 0 0
438 1 6.7264758113238488e+00 1.7786278722548797e+01 1.2243938555502025e+01 0 0 0
435 1 8.0709279301194758e+00 1.9152091060923148e+01 1.0807671261501433e+01 0 0 0
434 1 5.4493149574669379e+00 1.9184544289727118e+01 1.3616615133027500e+01 0 0 0
440 1 9.5320224576665247e+00 2.0440843130344085e+01 1.2148927470441381e+01 0 0 0
421 1 9.4667744579087749e+00 1.2254958482459662e+01 1.4931614233487549e+01 0 0 0
423 1 6.7037595566508328e+00 1.5015136117069732e+01 1.4939092255087855e+01 0 0 0
443 1 8.2087876382561085e+00 1.8995034031350382e+01 1.6306101227231821e+01 0 0 0
436 1 8.1360206685936554e+00 1.6298291665975846e+01 1.3527282915682626e+01 0 0 0
437 1 9.5487505694189245e+00 1.7619073702225624e+01 1.4895220652305992e+01 0 0 0
439 1 6.8016082373934816e+00 2.0447969782917504e+01 1.5016508722266407e+01 0 0 0
329 1 1.0864006661782916e+01 2.1741905929649413e+01 1.6332706440623909e+01 0 -1 0
430 1 6.6651639758928454e+00 1.2149013450658313e+01 1.7529748802479649e+01 0 0 0
427 1 8.0329341428573446e+00 1.3613426396050651e+01 1.6261257281319942e+01 0 0 0
432 1 9.5907155131917303e+00 1.5009031134170199e+01 1.7615568397337178e+01 0 0 0
446 1 6.7476667891838940e+00 1.7640241243140050e+01 1.7580012187723554e+01 0 0 0
448 1 9.5196886186453966e+00 2.0337081392013655e+01 1.7679460637258636e+01 0 0 0
321 1 1.0833135121327713e+01 2.1738101279534774e+01 1.0781624593941123e+01 0 -1 0
218 1 1.0779426888909372e+01 1.8995503925218468e+01 8.1300266619164887e+00 0 0 0
44 1 8.1268950429501139e+00 2.1705180407763244e+01 8.1180407233154348e+00 0 -1 0
292 1 8.2162510611795163e+00 2.1740395889036492e+01 1.3611712253787260e+01 0 -1 0
417 1 5.4227347086093642e+00 1.0920511706154489e+01 1.0889211824432959e+01 0 0 0
428 1 8.1030593537839462e+00 1.1033901125106960e+01 1.8991898441780805e+01 0 0 0
457 1 1.0737913145212534e+01 1.0931304398450832e+01 1.6308698805650632e+01 0 0 0
70 1 1.2233145461479623e+01 1.2768320699390709e+00 1.3640888677236087e+00 0 0 0
66 1 1.0871649544769722e+01 2.5689373987506210e+00 2.7005502909541335e+00 0 0 0
67 1 1.3580972122034124e+01 2.5915884366401531e+00 2.1725901634493358e+01 0 0 -1
84 1 1.3615385341150386e+01 5.4261042080173345e+00 2.6997838111747114e+00 0 0 0
72 1 1.5054073321531188e+01 3.9495132528049264e+00 1.3403136285169939e+00 0 0 0
98 1 1.6293881277788731e+01 2.5682805944593001e+00 2.7393892371608004e+00 0 0 0
86 1 1.2265200302902553e+01 6.7754980506930886e+00 1.3228505469048046e+00 0 0 0
83 1 1.3776202833520744e+01 8.1224182044240809e+00 2.4512732401545303e-02 0 0 0
88 1 1.5033823215249585e+01 9.5128851963150964e+00 1.4026417857566655e+00 0 0 0
69 1 1.4964355723721509e+01 1.2060724992182783e+00 4.0324075458427302e+00 0 0 0
71 1 1.2229807344218734e+01 4.0160807523542221e+00 3.9784278904444905e+00 0 0 0
460 1 1.3598384225544343e+01 1.0740733323234652e+01 1.9116641760728434e+01 0 0 0
91 1 1.3551142560845001e+01 8.1215378890221661e+00 5.4179246623664952e+00 0 0 0
193 1 1.0865054832591833e+01 1.0846307481250189e+01 1.2067634521518045e-02 0 0 0
85 1 1.4926282922510678e+01 6.8382048254917027e+00 4.1086353190617864e+00 0 0 0
87 1 1.2154138950088100e+01 9.4831491851164191e+00 4.1206297423236400e+00 0 0 0
233 1 1.6288931391224509e+01 1.0852642979395796e+01 5.4793944904451610e+00 0 0 0
78 1 1.2201602085437074e+01 1.3175214121184184e+00 6.7272830113090238e+00 0 0 0
351 1 1.2226147976896458e+01 9.3794360436425190e+00 2.0437208363535007e+01 0 0 0
336 1 1.5019269999512602e+01 3.9822740703019734e+00 1.7684982450820346e+01 0 0 0
75 1 1.3522191854715668e+01 2.6808377284936005e+00 5.3543863948271282e+00 0 0 0
80 1 1.4949384783388792e+01 4.0529730151245884e+00 6.6584430978948950e+00 0 0 0
349 1 1.5010006517005863e+01 6.7173476550271864e+00 2.0275993877417431e+01 0 0 0
94 1 1.2123347074730853e+01 6.6510499137733632e+00 6.7743049565966098e+00 0 0 0
113 1 1.6305192493580840e+01 5.4226626303430105e+00 5.0901202934557688e-02 0 0 0
96 1 1.4997891239238070e+01 9.4273337327112596e+00 6.8632579571699690e+00 0 0 0
348 1 1.3649509856793818e+01 5.3805806938889598e+00 1.8919256551137803e+01 0 0 0
77 1 1.4976488197822908e+01 1.3036474233253812e+00 9.3960257215699752e+00 0 0 0
79 1 1.2098513328933366e+01 3.9077036174868685e+00 9.4369096406683344e+00 0 0 0
92 1 1.3517815439315896e+01 5.3472618926080013e+00 8.1586803151207477e+00 0 0 0
93 1 1.4892331329478564e+01 6.8056324253941574e+00 9.4975455214188678e+00 0 0 0
369 1 1.6268137824129532e+01 5.4398634013025884e+00 1.0819258303421753e+01 0 0 0
95 1 1.2168344724435217e+01 9.4194872182395084e+00 9.5141435691343297e+00 0 0 0
326 1 1.2228053907692997e+01 1.3036535333579349e+00 1.2211089414696518e+01 0 0 0
323 1 1.3526790570582664e+01 2.6122116748829622e+00 1.0723247688367307e+01 0 0 0
335 1 1.2260868379755980e+01 4.0166616265729358e+00 2.0229300646325342e+01 0 0 0
328 1 1.4864648679475222e+01 4.0704805656441492e+00 1.2178295557884351e+01 0 0 0
342 1 1.2150954894502631e+01 6.8339180604723149e+00 1.2161189514122123e+01 0 0 0
340 1 1.3608268021053899e+01 5.4025800466159861e+00 1.3547642339411532e+01 0 0 0
339 1 1.3447406877242409e+01 8.1281278812107534e+00 1.0880368966317223e+01 0 0 0
344 1 1.4952177213592030e+01 9.4235882323726958e+00 1.2197947153288187e+01 0 0 0
333 1 1.4955043594474965e+01 1.3428102111643538e+00 2.0316821027453255e+01 0 0 0
325 1 1.5139890660778308e+01 1.3745583143213171e+00 1.4960967397098640e+01 0 0 0
352 1 1.4978542788027672e+01 9.4892716414152254e+00 1.7591623841363276e+01 0 0 0
327 1 1.2253587678058109e+01 4.0472416360574472e+00 1.5024734933535472e+01 0 0 0
347 1 1.3674432739415559e+01 8.0506260472860074e+00 1.6172335970278858e+01 0 0 0
341 1 1.5150785384922735e+01 6.6936350439456413e+00 1.4886863255150015e+01 0 0 0
350 1 1.2245780473922633e+01 6.8505753659270940e+00 1.7726234619197776e+01 0 0 0
343 1 1.2115119828727208e+01 9.4140856890304629e+00 1.5026497904331478e+01 0 0 0
334 1 1.2219171019555004e+01 1.2599212732709963e+00 1.7584623657396339e+01 0 0 0
330 1 1.0914751125477038e+01 2.6199108984296688e+00 1.8890081726581897e+01 0 0 0
331 1 1.3626088457522524e+01 2.5808112478652090e+00 1.6327439141232102e+01 0 0 0
196 1 1.3599340022455864e+01 1.0835194060659802e+01 2.8025054678136336e+00 0 0 0
204 1 1.3589255527573918e+01 1.0787768915698544e+01 8.2886591938132472e+00 0 0 0
452 1 1.3511038079068729e+01 1.0766108846625283e+01 1.3520320353226133e+01 0 0 0
324 1 1.3736755888099864e+01 -2.0377750853079135e-02 1.3572541439357011e+01 0 0 0
198 1 1.2205843835364105e+01 1.2272086556161199e+01 1.3733389481292617e+00 0 0 0
209 1 1.0902649217047271e+01 1.6252211615041080e+01 2.1645379287971164e+01 0 0 -1
212 1 1.3573671416542373e+01 1.6227134579753258e+01 2.5894405704348458e+00 0 0 0
200 1 1.4925882939531586e+01 1.4840335813443707e+01 1.3189217601423218e+00 0 0 0
214 1 1.2234530741143104e+01 1.7685063003475786e+01 1.2878382775392698e+00 0 0 0
211 1 1.3694281241953913e+01 1.8987856220790494e+01 2.1715885870110998e+01 0 0 -1
216 1 1.5016520914985243e+01 2.0444450902566981e+01 1.3740247554880594e+00 0 0 0
332 1 1.3556604073029501e+01 2.1699791499296119e+01 1.8990031394274400e+01 0 -1 0
473 1 1.0921524779978919e+01 1.6281448239625792e+01 1.6204854746880340e+01 0 0 0
197 1 1.4988970205749345e+01 1.2222938988904014e+01 4.1456092044863420e+00 0 0 0
203 1 1.3541198896943010e+01 1.3525639508935699e+01 5.4352690206975112e+00 0 0 0
199 1 1.2285666844114379e+01 1.5025304539508529e+01 4.1458642184653725e+00 0 0 0
479 1 1.2216970039893088e+01 2.0287732520705450e+01 2.0380848886999583e+01 0 0 0
213 1 1.4898891672838102e+01 1.7617120477675950e+01 4.0423039513446035e+00 0 0 0
219 1 1.3489320521266491e+01 1.8928916896260819e+01 5.4307018855074096e+00 0 0 0
215 1 1.2157697837217139e+01 2.0408596425354322e+01 4.0922720276216173e+00 0 0 0
242 1 1.6212915448996885e+01 1.9064141010998650e+01 2.7680082754412432e+00 0 0 0
206 1 1.2299126197919906e+01 1.2110723225523268e+01 6.8129689665167579e+00 0 0 0
202 1 1.0938187163883308e+01 1.3482651516453917e+01 8.1850054497504203e+00 0 0 0
208 1 1.5033380360391751e+01 1.4853671575932228e+01 6.7398172030827688e+00 0 0 0
222 1 1.2210555787536034e+01 1.7671373959814620e+01 6.9075037228710015e+00 0 0 0
477 1 1.5055741013479517e+01 1.7627284880194438e+01 2.0403209367405932e+01 0 0 0
224 1 1.4885902195742515e+01 2.0289780696614692e+01 6.8077157313326939e+00 0 0 0
450 1 1.0978971661890466e+01 1.3479534741996236e+01 1.3564971423645027e+01 0 0 0
205 1 1.5014404367684698e+01 1.2214251405576402e+01 9.5618079201707609e+00 0 0 0
207 1 1.2320554795717078e+01 1.4830847330559866e+01 9.4884046245810811e+00 0 0 0
220 1 1.3635397328105762e+01 1.6293647860731330e+01 8.1941121050234074e+00 0 0 0
497 1 1.6307522486960409e+01 1.6405381113988035e+01 1.0849938732485017e+01 0 0 0
467 1 1.3560278001368919e+01 1.9031464751483149e+01 1.0836879791839742e+01 0 0 0
221 1 1.4979193565365478e+01 1.7743591516096753e+01 9.4782891076396201e+00 0 0 0
463 1 1.2187483957506176e+01 1.4909840726189259e+01 2.0290784614525503e+01 0 0 0
223 1 1.2201589037285078e+01 2.0366655218968951e+01 9.4243265894086665e+00 0 0 0
454 1 1.2217697906579678e+01 1.2160972568409045e+01 1.2166941630923564e+01 0 0 0
217 1 1.0920794203284196e+01 1.6339809502444606e+01 5.4089145817770499e+00 0 0 0
451 1 1.3687622106071434e+01 1.3606173510521602e+01 1.0925131539294968e+01 0 0 0
456 1 1.4990868134404401e+01 1.5018986924772221e+01 1.2220751398246170e+01 0 0 0
470 1 1.2194510402810675e+01 1.7717638823498980e+01 1.2206486164187721e+01 0 0 0
465 1 1.0928228965349962e+01 1.6332913771706593e+01 1.0834903849481329e+01 0 0 0
466 1 1.0867730282922725e+01 1.9096234379987653e+01 1.3640201838129427e+01 0 0 0
472 1 1.4934156657569133e+01 2.0419899325529368e+01 1.2162411052825782e+01 0 0 0
459 1 1.3659920920758518e+01 1.3525306620097620e+01 1.6352489774974671e+01 0 0 0
453 1 1.4826421209866862e+01 1.2210961205415890e+01 1.4823391723146502e+01 0 0 0
468 1 1.3531201061830984e+01 1.6327180023531948e+01 1.3540827098020298e+01 0 0 0
455 1 1.2322693354176542e+01 1.4869927524878232e+01 1.4902642415089611e+01 0 0 0
469 1 1.4859227809311893e+01 1.7595123962110922e+01 1.4974584730530720e+01 0 0 0
475 1 1.3560134615141324e+01 1.8998308671885734e+01 1.6280904969620718e+01 0 0 0
471 1 1.2283786102627282e+01 2.0419065048327276e+01 1.4943063461475420e+01 0 0 0
65 1 1.0882885675122234e+01 2.1719115224167219e+01 3.1103601775292589e-02 0 -1 0
462 1 1.2188233484362016e+01 1.2071454515512684e+01 1.7676916085150381e+01 0 0 0
458 1 1.0867131819692194e+01 1.3487197160197619e+01 1.8869966296347052e+01 0 0 0
464 1 1.4962265626482855e+01 1.4964550658003443e+01 1.7663510225075584e+01 0 0 0