 LAMMPS Description
 
    64 atoms
 1 atom types
 
  0.0000000E+00   10.8640183100000      xlo xhi
  0.0000000E+00   10.8640183100000      ylo yhi
  0.0000000E+00   10.8640183100000      zlo zhi
 
 Masses
 
           1   28.0855000000000       # Si 
 
 Atoms
 
         1         1  -0.0011  -0.0011  -0.0011
         2         1  -0.0011   2.7149   2.7149
         3         1   2.7149   2.7149  -0.0011
         4         1   2.7149  -0.0011   2.7149
         5         1   4.0729   1.3569   4.0729
         6         1   1.3569   1.3569   1.3569
         7         1   1.3569   4.0729   4.0729
         8         1   4.0729   4.0729   1.3569
         9         1  -0.0011  -0.0011   5.4309
        10         1  -0.0011   2.7149   8.1469
        11         1   2.7149   2.7149   5.4309
        12         1   2.7149  -0.0011   8.1469
        13         1   4.0729   1.3569   9.5049
        14         1   1.3569   1.3569   6.7889
        15         1   1.3569   4.0729   9.5049
        16         1   4.0729   4.0729   6.7889
        17         1  -0.0011   5.4309  -0.0011
        18         1  -0.0011   8.1469   2.7149
        19         1   2.7149   8.1469  -0.0011
        20         1   2.7149   5.4309   2.7149
        21         1   4.0729   6.7889   4.0729
        22         1   1.3569   6.7889   1.3569
        23         1   1.3569   9.5049   4.0729
        24         1   4.0729   9.5049   1.3569
        25         1  -0.0011   5.4309   5.4309
        26         1  -0.0011   8.1469   8.1469
        27         1   2.7149   8.1469   5.4309
        28         1   2.7149   5.4309   8.1469
        29         1   4.0729   6.7889   9.5049
        30         1   1.3569   6.7889   6.7889
        31         1   1.3569   9.5049   9.5049
        32         1   4.0729   9.5049   6.7889
        33         1   5.4309  -0.0011  -0.0011
        34         1   5.4309   2.7149   2.7149
        35         1   8.1469   2.7149  -0.0011
        36         1   8.1469  -0.0011   2.7149
        37         1   9.5049   1.3569   4.0729
        38         1   6.7889   1.3569   1.3569
        39         1   6.7889   4.0729   4.0729
        40         1   9.5049   4.0729   1.3569
        41         1   5.4309  -0.0011   5.4309
        42         1   5.4309   2.7149   8.1469
        43         1   8.1469   2.7149   5.4309
        44         1   8.1469  -0.0011   8.1469
        45         1   9.5049   1.3569   9.5049
        46         1   6.7889   1.3569   6.7889
        47         1   6.7889   4.0729   9.5049
        48         1   9.5049   4.0729   6.7889
        49         1   5.4309   5.4309  -0.0011
        50         1   5.4309   8.1469   2.7149
        51         1   8.1469   8.1469  -0.0011
        52         1   8.1469   5.4309   2.7149
        53         1   9.5049   6.7889   4.0729
        54         1   6.7889   6.7889   1.3569
        55         1   6.7889   9.5049   4.0729
        56         1   9.5049   9.5049   1.3569
        57         1   5.4309   5.4309   5.4309
        58         1   5.4309   8.1469   8.1469
        59         1   8.1469   8.1469   5.4309
        60         1   8.1469   5.4309   8.1469
        61         1   9.5049   6.7889   9.5049
        62         1   6.7889   6.7889   6.7889
        63         1   6.7889   9.5049   9.5049
        64         1   9.5049   9.5049   6.7889
