LAMMPS DATA FILE FOR SED

2304 atoms

3 atom types

-0.4603 10.5867 xlo xhi
-0.79725 5.58075 ylo yhi
-0.3255 374.65049999999997 zlo zhi

Masses

1 69.723
2 14.007
3 114.818

Atoms

1 1 0.0 0.0 0.0
2 2 0.0 0.0 1.953
3 3 1.8412 0.0 2.604
4 2 1.8412 0.0 4.557
5 1 2.7618 1.5945 0.0
6 2 2.7618 1.5945 1.953
7 3 4.6029 1.5945 2.604
8 2 4.6029 1.5945 4.557
9 3 5.5235 0.0 0.0
10 2 5.5235 0.0 1.953
11 1 7.3647 0.0 2.604
12 2 7.3647 0.0 4.557
13 1 8.2853 1.5945 0.0
14 2 8.2853 1.5945 1.953
15 1 10.1264 1.5945 2.604
16 2 10.1264 1.5945 4.557
17 1 0.0 3.189 0.0
18 2 0.0 3.189 1.953
19 3 1.8412 3.189 2.604
20 2 1.8412 3.189 4.557
21 1 2.7618 4.7835 0.0
22 2 2.7618 4.7835 1.953
23 3 4.6029 4.7835 2.604
24 2 4.6029 4.7835 4.557
25 1 5.5235 3.189 0.0
26 2 5.5235 3.189 1.953
27 3 7.3647 3.189 2.604
28 2 7.3647 3.189 4.557
29 1 8.2853 4.7835 0.0
30 2 8.2853 4.7835 1.953
31 3 10.1264 4.7835 2.604
32 2 10.1264 4.7835 4.557
33 1 0.0 0.0 5.208
34 2 0.0 0.0 7.161
35 3 1.8412 0.0 7.812
36 2 1.8412 0.0 9.765
37 1 2.7618 1.5945 5.208
38 2 2.7618 1.5945 7.161
39 1 4.6029 1.5945 7.812
40 2 4.6029 1.5945 9.765
41 1 5.5235 0.0 5.208
42 2 5.5235 0.0 7.161
43 1 7.3647 0.0 7.812
44 2 7.3647 0.0 9.765
45 3 8.2853 1.5945 5.208
46 2 8.2853 1.5945 7.161
47 3 10.1264 1.5945 7.812
48 2 10.1264 1.5945 9.765
49 3 0.0 3.189 5.208
50 2 0.0 3.189 7.161
51 3 1.8412 3.189 7.812
52 2 1.8412 3.189 9.765
53 3 2.7618 4.7835 5.208
54 2 2.7618 4.7835 7.161
55 3 4.6029 4.7835 7.812
56 2 4.6029 4.7835 9.765
57 3 5.5235 3.189 5.208
58 2 5.5235 3.189 7.161
59 3 7.3647 3.189 7.812
60 2 7.3647 3.189 9.765
61 1 8.2853 4.7835 5.208
62 2 8.2853 4.7835 7.161
63 1 10.1264 4.7835 7.812
64 2 10.1264 4.7835 9.765
65 3 0.0 0.0 10.416
66 2 0.0 0.0 12.369
67 3 1.8412 0.0 13.02
68 2 1.8412 0.0 14.973
69 3 2.7618 1.5945 10.416
70 2 2.7618 1.5945 12.369
71 1 4.6029 1.5945 13.02
72 2 4.6029 1.5945 14.973
73 1 5.5235 0.0 10.416
74 2 5.5235 0.0 12.369
75 1 7.3647 0.0 13.02
76 2 7.3647 0.0 14.973
77 1 8.2853 1.5945 10.416
78 2 8.2853 1.5945 12.369
79 1 10.1264 1.5945 13.02
80 2 10.1264 1.5945 14.973
81 3 0.0 3.189 10.416
82 2 0.0 3.189 12.369
83 3 1.8412 3.189 13.02
84 2 1.8412 3.189 14.973
85 3 2.7618 4.7835 10.416
86 2 2.7618 4.7835 12.369
87 3 4.6029 4.7835 13.02
88 2 4.6029 4.7835 14.973
89 3 5.5235 3.189 10.416
90 2 5.5235 3.189 12.369
91 1 7.3647 3.189 13.02
92 2 7.3647 3.189 14.973
93 3 8.2853 4.7835 10.416
94 2 8.2853 4.7835 12.369
95 1 10.1264 4.7835 13.02
96 2 10.1264 4.7835 14.973
97 3 0.0 0.0 15.624
98 2 0.0 0.0 17.577
99 3 1.8412 0.0 18.228
100 2 1.8412 0.0 20.181
101 3 2.7618 1.5945 15.624
102 2 2.7618 1.5945 17.577
103 1 4.6029 1.5945 18.228
104 2 4.6029 1.5945 20.181
105 3 5.5235 0.0 15.624
106 2 5.5235 0.0 17.577
107 1 7.3647 0.0 18.228
108 2 7.3647 0.0 20.181
109 1 8.2853 1.5945 15.624
110 2 8.2853 1.5945 17.577
111 3 10.1264 1.5945 18.228
112 2 10.1264 1.5945 20.181
113 1 0.0 3.189 15.624
114 2 0.0 3.189 17.577
115 1 1.8412 3.189 18.228
116 2 1.8412 3.189 20.181
117 3 2.7618 4.7835 15.624
118 2 2.7618 4.7835 17.577
119 3 4.6029 4.7835 18.228
120 2 4.6029 4.7835 20.181
121 1 5.5235 3.189 15.624
122 2 5.5235 3.189 17.577
123 1 7.3647 3.189 18.228
124 2 7.3647 3.189 20.181
125 1 8.2853 4.7835 15.624
126 2 8.2853 4.7835 17.577
127 1 10.1264 4.7835 18.228
128 2 10.1264 4.7835 20.181
129 3 0.0 0.0 20.832
130 2 0.0 0.0 22.785
131 3 1.8412 0.0 23.436
132 2 1.8412 0.0 25.389
133 3 2.7618 1.5945 20.832
134 2 2.7618 1.5945 22.785
135 1 4.6029 1.5945 23.436
136 2 4.6029 1.5945 25.389
137 3 5.5235 0.0 20.832
138 2 5.5235 0.0 22.785
139 3 7.3647 0.0 23.436
140 2 7.3647 0.0 25.389
141 1 8.2853 1.5945 20.832
142 2 8.2853 1.5945 22.785
143 1 10.1264 1.5945 23.436
144 2 10.1264 1.5945 25.389
145 1 0.0 3.189 20.832
146 2 0.0 3.189 22.785
147 3 1.8412 3.189 23.436
148 2 1.8412 3.189 25.389
149 3 2.7618 4.7835 20.832
150 2 2.7618 4.7835 22.785
151 1 4.6029 4.7835 23.436
152 2 4.6029 4.7835 25.389
153 1 5.5235 3.189 20.832
154 2 5.5235 3.189 22.785
155 3 7.3647 3.189 23.436
156 2 7.3647 3.189 25.389
157 1 8.2853 4.7835 20.832
158 2 8.2853 4.7835 22.785
159 3 10.1264 4.7835 23.436
160 2 10.1264 4.7835 25.389
161 3 0.0 0.0 26.04
162 2 0.0 0.0 27.993
163 1 1.8412 0.0 28.644
164 2 1.8412 0.0 30.597
165 1 2.7618 1.5945 26.04
166 2 2.7618 1.5945 27.993
167 1 4.6029 1.5945 28.644
168 2 4.6029 1.5945 30.597
169 1 5.5235 0.0 26.04
170 2 5.5235 0.0 27.993
171 3 7.3647 0.0 28.644
172 2 7.3647 0.0 30.597
173 3 8.2853 1.5945 26.04
174 2 8.2853 1.5945 27.993
175 1 10.1264 1.5945 28.644
176 2 10.1264 1.5945 30.597
177 3 0.0 3.189 26.04
178 2 0.0 3.189 27.993
179 1 1.8412 3.189 28.644
180 2 1.8412 3.189 30.597
181 1 2.7618 4.7835 26.04
182 2 2.7618 4.7835 27.993
183 3 4.6029 4.7835 28.644
184 2 4.6029 4.7835 30.597
185 1 5.5235 3.189 26.04
186 2 5.5235 3.189 27.993
187 1 7.3647 3.189 28.644
188 2 7.3647 3.189 30.597
189 3 8.2853 4.7835 26.04
190 2 8.2853 4.7835 27.993
191 1 10.1264 4.7835 28.644
192 2 10.1264 4.7835 30.597
193 1 0.0 0.0 31.248
194 2 0.0 0.0 33.201
195 3 1.8412 0.0 33.852
196 2 1.8412 0.0 35.805
197 1 2.7618 1.5945 31.248
198 2 2.7618 1.5945 33.201
199 3 4.6029 1.5945 33.852
200 2 4.6029 1.5945 35.805
201 1 5.5235 0.0 31.248
202 2 5.5235 0.0 33.201
203 1 7.3647 0.0 33.852
204 2 7.3647 0.0 35.805
205 3 8.2853 1.5945 31.248
206 2 8.2853 1.5945 33.201
207 1 10.1264 1.5945 33.852
208 2 10.1264 1.5945 35.805
209 1 0.0 3.189 31.248
210 2 0.0 3.189 33.201
211 3 1.8412 3.189 33.852
212 2 1.8412 3.189 35.805
213 1 2.7618 4.7835 31.248
214 2 2.7618 4.7835 33.201
215 1 4.6029 4.7835 33.852
216 2 4.6029 4.7835 35.805
217 1 5.5235 3.189 31.248
218 2 5.5235 3.189 33.201
219 1 7.3647 3.189 33.852
220 2 7.3647 3.189 35.805
221 3 8.2853 4.7835 31.248
222 2 8.2853 4.7835 33.201
223 3 10.1264 4.7835 33.852
224 2 10.1264 4.7835 35.805
225 3 0.0 0.0 36.456
226 2 0.0 0.0 38.409
227 3 1.8412 0.0 39.06
228 2 1.8412 0.0 41.013
229 3 2.7618 1.5945 36.456
230 2 2.7618 1.5945 38.409
231 1 4.6029 1.5945 39.06
232 2 4.6029 1.5945 41.013
233 3 5.5235 0.0 36.456
234 2 5.5235 0.0 38.409
235 3 7.3647 0.0 39.06
236 2 7.3647 0.0 41.013
237 3 8.2853 1.5945 36.456
238 2 8.2853 1.5945 38.409
239 3 10.1264 1.5945 39.06
240 2 10.1264 1.5945 41.013
241 3 0.0 3.189 36.456
242 2 0.0 3.189 38.409
243 3 1.8412 3.189 39.06
244 2 1.8412 3.189 41.013
245 3 2.7618 4.7835 36.456
246 2 2.7618 4.7835 38.409
247 1 4.6029 4.7835 39.06
248 2 4.6029 4.7835 41.013
249 1 5.5235 3.189 36.456
250 2 5.5235 3.189 38.409
251 1 7.3647 3.189 39.06
252 2 7.3647 3.189 41.013
253 1 8.2853 4.7835 36.456
254 2 8.2853 4.7835 38.409
255 3 10.1264 4.7835 39.06
256 2 10.1264 4.7835 41.013
257 3 0.0 0.0 41.664
258 2 0.0 0.0 43.617
259 3 1.8412 0.0 44.268
260 2 1.8412 0.0 46.221
261 3 2.7618 1.5945 41.664
262 2 2.7618 1.5945 43.617
263 1 4.6029 1.5945 44.268
264 2 4.6029 1.5945 46.221
265 3 5.5235 0.0 41.664
266 2 5.5235 0.0 43.617
267 3 7.3647 0.0 44.268
268 2 7.3647 0.0 46.221
269 3 8.2853 1.5945 41.664
270 2 8.2853 1.5945 43.617
271 3 10.1264 1.5945 44.268
272 2 10.1264 1.5945 46.221
273 3 0.0 3.189 41.664
274 2 0.0 3.189 43.617
275 3 1.8412 3.189 44.268
276 2 1.8412 3.189 46.221
277 3 2.7618 4.7835 41.664
278 2 2.7618 4.7835 43.617
279 1 4.6029 4.7835 44.268
280 2 4.6029 4.7835 46.221
281 3 5.5235 3.189 41.664
282 2 5.5235 3.189 43.617
283 1 7.3647 3.189 44.268
284 2 7.3647 3.189 46.221
285 3 8.2853 4.7835 41.664
286 2 8.2853 4.7835 43.617
287 1 10.1264 4.7835 44.268
288 2 10.1264 4.7835 46.221
289 3 0.0 0.0 46.872
290 2 0.0 0.0 48.825
291 1 1.8412 0.0 49.476
292 2 1.8412 0.0 51.429
293 1 2.7618 1.5945 46.872
294 2 2.7618 1.5945 48.825
295 3 4.6029 1.5945 49.476
296 2 4.6029 1.5945 51.429
297 1 5.5235 0.0 46.872
298 2 5.5235 0.0 48.825
299 1 7.3647 0.0 49.476
300 2 7.3647 0.0 51.429
301 1 8.2853 1.5945 46.872
302 2 8.2853 1.5945 48.825
303 3 10.1264 1.5945 49.476
304 2 10.1264 1.5945 51.429
305 3 0.0 3.189 46.872
306 2 0.0 3.189 48.825
307 3 1.8412 3.189 49.476
308 2 1.8412 3.189 51.429
309 1 2.7618 4.7835 46.872
310 2 2.7618 4.7835 48.825
311 3 4.6029 4.7835 49.476
312 2 4.6029 4.7835 51.429
313 3 5.5235 3.189 46.872
314 2 5.5235 3.189 48.825
315 1 7.3647 3.189 49.476
316 2 7.3647 3.189 51.429
317 3 8.2853 4.7835 46.872
318 2 8.2853 4.7835 48.825
319 1 10.1264 4.7835 49.476
320 2 10.1264 4.7835 51.429
321 3 0.0 0.0 52.08
322 2 0.0 0.0 54.033
323 1 1.8412 0.0 54.684
324 2 1.8412 0.0 56.637
325 1 2.7618 1.5945 52.08
326 2 2.7618 1.5945 54.033
327 3 4.6029 1.5945 54.684
328 2 4.6029 1.5945 56.637
329 1 5.5235 0.0 52.08
330 2 5.5235 0.0 54.033
331 3 7.3647 0.0 54.684
332 2 7.3647 0.0 56.637
333 3 8.2853 1.5945 52.08
334 2 8.2853 1.5945 54.033
335 3 10.1264 1.5945 54.684
336 2 10.1264 1.5945 56.637
337 3 0.0 3.189 52.08
338 2 0.0 3.189 54.033
339 3 1.8412 3.189 54.684
340 2 1.8412 3.189 56.637
341 1 2.7618 4.7835 52.08
342 2 2.7618 4.7835 54.033
343 1 4.6029 4.7835 54.684
344 2 4.6029 4.7835 56.637
345 1 5.5235 3.189 52.08
346 2 5.5235 3.189 54.033
347 3 7.3647 3.189 54.684
348 2 7.3647 3.189 56.637
349 3 8.2853 4.7835 52.08
350 2 8.2853 4.7835 54.033
351 1 10.1264 4.7835 54.684
352 2 10.1264 4.7835 56.637
353 1 0.0 0.0 57.288
354 2 0.0 0.0 59.241
355 1 1.8412 0.0 59.892
356 2 1.8412 0.0 61.845
357 3 2.7618 1.5945 57.288
358 2 2.7618 1.5945 59.241
359 3 4.6029 1.5945 59.892
360 2 4.6029 1.5945 61.845
361 3 5.5235 0.0 57.288
362 2 5.5235 0.0 59.241
363 3 7.3647 0.0 59.892
364 2 7.3647 0.0 61.845
365 3 8.2853 1.5945 57.288
366 2 8.2853 1.5945 59.241
367 1 10.1264 1.5945 59.892
368 2 10.1264 1.5945 61.845
369 3 0.0 3.189 57.288
370 2 0.0 3.189 59.241
371 1 1.8412 3.189 59.892
372 2 1.8412 3.189 61.845
373 3 2.7618 4.7835 57.288
374 2 2.7618 4.7835 59.241
375 1 4.6029 4.7835 59.892
376 2 4.6029 4.7835 61.845
377 3 5.5235 3.189 57.288
378 2 5.5235 3.189 59.241
379 3 7.3647 3.189 59.892
380 2 7.3647 3.189 61.845
381 3 8.2853 4.7835 57.288
382 2 8.2853 4.7835 59.241
383 1 10.1264 4.7835 59.892
384 2 10.1264 4.7835 61.845
385 1 0.0 0.0 62.496
386 2 0.0 0.0 64.449
387 3 1.8412 0.0 65.1
388 2 1.8412 0.0 67.053
389 3 2.7618 1.5945 62.496
390 2 2.7618 1.5945 64.449
391 3 4.6029 1.5945 65.1
392 2 4.6029 1.5945 67.053
393 1 5.5235 0.0 62.496
394 2 5.5235 0.0 64.449
395 1 7.3647 0.0 65.1
396 2 7.3647 0.0 67.053
397 3 8.2853 1.5945 62.496
398 2 8.2853 1.5945 64.449
399 1 10.1264 1.5945 65.1
400 2 10.1264 1.5945 67.053
401 1 0.0 3.189 62.496
402 2 0.0 3.189 64.449
403 3 1.8412 3.189 65.1
404 2 1.8412 3.189 67.053
405 3 2.7618 4.7835 62.496
406 2 2.7618 4.7835 64.449
407 3 4.6029 4.7835 65.1
408 2 4.6029 4.7835 67.053
409 1 5.5235 3.189 62.496
410 2 5.5235 3.189 64.449
411 1 7.3647 3.189 65.1
412 2 7.3647 3.189 67.053
413 1 8.2853 4.7835 62.496
414 2 8.2853 4.7835 64.449
415 1 10.1264 4.7835 65.1
416 2 10.1264 4.7835 67.053
417 3 0.0 0.0 67.704
418 2 0.0 0.0 69.657
419 3 1.8412 0.0 70.308
420 2 1.8412 0.0 72.261
421 1 2.7618 1.5945 67.704
422 2 2.7618 1.5945 69.657
423 3 4.6029 1.5945 70.308
424 2 4.6029 1.5945 72.261
425 3 5.5235 0.0 67.704
426 2 5.5235 0.0 69.657
427 3 7.3647 0.0 70.308
428 2 7.3647 0.0 72.261
429 1 8.2853 1.5945 67.704
430 2 8.2853 1.5945 69.657
431 1 10.1264 1.5945 70.308
432 2 10.1264 1.5945 72.261
433 1 0.0 3.189 67.704
434 2 0.0 3.189 69.657
435 3 1.8412 3.189 70.308
436 2 1.8412 3.189 72.261
437 3 2.7618 4.7835 67.704
438 2 2.7618 4.7835 69.657
439 3 4.6029 4.7835 70.308
440 2 4.6029 4.7835 72.261
441 1 5.5235 3.189 67.704
442 2 5.5235 3.189 69.657
443 1 7.3647 3.189 70.308
444 2 7.3647 3.189 72.261
445 3 8.2853 4.7835 67.704
446 2 8.2853 4.7835 69.657
447 1 10.1264 4.7835 70.308
448 2 10.1264 4.7835 72.261
449 3 0.0 0.0 72.912
450 2 0.0 0.0 74.865
451 1 1.8412 0.0 75.516
452 2 1.8412 0.0 77.469
453 3 2.7618 1.5945 72.912
454 2 2.7618 1.5945 74.865
455 3 4.6029 1.5945 75.516
456 2 4.6029 1.5945 77.469
457 1 5.5235 0.0 72.912
458 2 5.5235 0.0 74.865
459 3 7.3647 0.0 75.516
460 2 7.3647 0.0 77.469
461 3 8.2853 1.5945 72.912
462 2 8.2853 1.5945 74.865
463 3 10.1264 1.5945 75.516
464 2 10.1264 1.5945 77.469
465 3 0.0 3.189 72.912
466 2 0.0 3.189 74.865
467 1 1.8412 3.189 75.516
468 2 1.8412 3.189 77.469
469 3 2.7618 4.7835 72.912
470 2 2.7618 4.7835 74.865
471 1 4.6029 4.7835 75.516
472 2 4.6029 4.7835 77.469
473 3 5.5235 3.189 72.912
474 2 5.5235 3.189 74.865
475 3 7.3647 3.189 75.516
476 2 7.3647 3.189 77.469
477 3 8.2853 4.7835 72.912
478 2 8.2853 4.7835 74.865
479 3 10.1264 4.7835 75.516
480 2 10.1264 4.7835 77.469
481 1 0.0 0.0 78.12
482 2 0.0 0.0 80.073
483 1 1.8412 0.0 80.724
484 2 1.8412 0.0 82.677
485 3 2.7618 1.5945 78.12
486 2 2.7618 1.5945 80.073
487 1 4.6029 1.5945 80.724
488 2 4.6029 1.5945 82.677
489 1 5.5235 0.0 78.12
490 2 5.5235 0.0 80.073
491 1 7.3647 0.0 80.724
492 2 7.3647 0.0 82.677
493 3 8.2853 1.5945 78.12
494 2 8.2853 1.5945 80.073
495 3 10.1264 1.5945 80.724
496 2 10.1264 1.5945 82.677
497 1 0.0 3.189 78.12
498 2 0.0 3.189 80.073
499 3 1.8412 3.189 80.724
500 2 1.8412 3.189 82.677
501 1 2.7618 4.7835 78.12
502 2 2.7618 4.7835 80.073
503 1 4.6029 4.7835 80.724
504 2 4.6029 4.7835 82.677
505 1 5.5235 3.189 78.12
506 2 5.5235 3.189 80.073
507 1 7.3647 3.189 80.724
508 2 7.3647 3.189 82.677
509 3 8.2853 4.7835 78.12
510 2 8.2853 4.7835 80.073
511 3 10.1264 4.7835 80.724
512 2 10.1264 4.7835 82.677
513 1 0.0 0.0 83.328
514 2 0.0 0.0 85.281
515 1 1.8412 0.0 85.932
516 2 1.8412 0.0 87.885
517 1 2.7618 1.5945 83.328
518 2 2.7618 1.5945 85.281
519 3 4.6029 1.5945 85.932
520 2 4.6029 1.5945 87.885
521 1 5.5235 0.0 83.328
522 2 5.5235 0.0 85.281
523 3 7.3647 0.0 85.932
524 2 7.3647 0.0 87.885
525 1 8.2853 1.5945 83.328
526 2 8.2853 1.5945 85.281
527 3 10.1264 1.5945 85.932
528 2 10.1264 1.5945 87.885
529 3 0.0 3.189 83.328
530 2 0.0 3.189 85.281
531 1 1.8412 3.189 85.932
532 2 1.8412 3.189 87.885
533 1 2.7618 4.7835 83.328
534 2 2.7618 4.7835 85.281
535 1 4.6029 4.7835 85.932
536 2 4.6029 4.7835 87.885
537 1 5.5235 3.189 83.328
538 2 5.5235 3.189 85.281
539 3 7.3647 3.189 85.932
540 2 7.3647 3.189 87.885
541 1 8.2853 4.7835 83.328
542 2 8.2853 4.7835 85.281
543 3 10.1264 4.7835 85.932
544 2 10.1264 4.7835 87.885
545 1 0.0 0.0 88.536
546 2 0.0 0.0 90.489
547 3 1.8412 0.0 91.14
548 2 1.8412 0.0 93.093
549 1 2.7618 1.5945 88.536
550 2 2.7618 1.5945 90.489
551 3 4.6029 1.5945 91.14
552 2 4.6029 1.5945 93.093
553 1 5.5235 0.0 88.536
554 2 5.5235 0.0 90.489
555 1 7.3647 0.0 91.14
556 2 7.3647 0.0 93.093
557 1 8.2853 1.5945 88.536
558 2 8.2853 1.5945 90.489
559 1 10.1264 1.5945 91.14
560 2 10.1264 1.5945 93.093
561 3 0.0 3.189 88.536
562 2 0.0 3.189 90.489
563 1 1.8412 3.189 91.14
564 2 1.8412 3.189 93.093
565 3 2.7618 4.7835 88.536
566 2 2.7618 4.7835 90.489
567 3 4.6029 4.7835 91.14
568 2 4.6029 4.7835 93.093
569 1 5.5235 3.189 88.536
570 2 5.5235 3.189 90.489
571 3 7.3647 3.189 91.14
572 2 7.3647 3.189 93.093
573 1 8.2853 4.7835 88.536
574 2 8.2853 4.7835 90.489
575 3 10.1264 4.7835 91.14
576 2 10.1264 4.7835 93.093
577 3 0.0 0.0 93.744
578 2 0.0 0.0 95.697
579 1 1.8412 0.0 96.348
580 2 1.8412 0.0 98.301
581 1 2.7618 1.5945 93.744
582 2 2.7618 1.5945 95.697
583 3 4.6029 1.5945 96.348
584 2 4.6029 1.5945 98.301
585 3 5.5235 0.0 93.744
586 2 5.5235 0.0 95.697
587 1 7.3647 0.0 96.348
588 2 7.3647 0.0 98.301
589 1 8.2853 1.5945 93.744
590 2 8.2853 1.5945 95.697
591 1 10.1264 1.5945 96.348
592 2 10.1264 1.5945 98.301
593 3 0.0 3.189 93.744
594 2 0.0 3.189 95.697
595 1 1.8412 3.189 96.348
596 2 1.8412 3.189 98.301
597 3 2.7618 4.7835 93.744
598 2 2.7618 4.7835 95.697
599 1 4.6029 4.7835 96.348
600 2 4.6029 4.7835 98.301
601 3 5.5235 3.189 93.744
602 2 5.5235 3.189 95.697
603 3 7.3647 3.189 96.348
604 2 7.3647 3.189 98.301
605 3 8.2853 4.7835 93.744
606 2 8.2853 4.7835 95.697
607 3 10.1264 4.7835 96.348
608 2 10.1264 4.7835 98.301
609 3 0.0 0.0 98.952
610 2 0.0 0.0 100.905
611 3 1.8412 0.0 101.556
612 2 1.8412 0.0 103.509
613 1 2.7618 1.5945 98.952
614 2 2.7618 1.5945 100.905
615 1 4.6029 1.5945 101.556
616 2 4.6029 1.5945 103.509
617 3 5.5235 0.0 98.952
618 2 5.5235 0.0 100.905
619 1 7.3647 0.0 101.556
620 2 7.3647 0.0 103.509
621 3 8.2853 1.5945 98.952
622 2 8.2853 1.5945 100.905
623 1 10.1264 1.5945 101.556
624 2 10.1264 1.5945 103.509
625 3 0.0 3.189 98.952
626 2 0.0 3.189 100.905
627 1 1.8412 3.189 101.556
628 2 1.8412 3.189 103.509
629 1 2.7618 4.7835 98.952
630 2 2.7618 4.7835 100.905
631 1 4.6029 4.7835 101.556
632 2 4.6029 4.7835 103.509
633 3 5.5235 3.189 98.952
634 2 5.5235 3.189 100.905
635 1 7.3647 3.189 101.556
636 2 7.3647 3.189 103.509
637 3 8.2853 4.7835 98.952
638 2 8.2853 4.7835 100.905
639 3 10.1264 4.7835 101.556
640 2 10.1264 4.7835 103.509
641 1 0.0 0.0 104.16
642 2 0.0 0.0 106.113
643 1 1.8412 0.0 106.764
644 2 1.8412 0.0 108.717
645 1 2.7618 1.5945 104.16
646 2 2.7618 1.5945 106.113
647 3 4.6029 1.5945 106.764
648 2 4.6029 1.5945 108.717
649 3 5.5235 0.0 104.16
650 2 5.5235 0.0 106.113
651 3 7.3647 0.0 106.764
652 2 7.3647 0.0 108.717
653 3 8.2853 1.5945 104.16
654 2 8.2853 1.5945 106.113
655 3 10.1264 1.5945 106.764
656 2 10.1264 1.5945 108.717
657 3 0.0 3.189 104.16
658 2 0.0 3.189 106.113
659 1 1.8412 3.189 106.764
660 2 1.8412 3.189 108.717
661 3 2.7618 4.7835 104.16
662 2 2.7618 4.7835 106.113
663 1 4.6029 4.7835 106.764
664 2 4.6029 4.7835 108.717
665 3 5.5235 3.189 104.16
666 2 5.5235 3.189 106.113
667 1 7.3647 3.189 106.764
668 2 7.3647 3.189 108.717
669 3 8.2853 4.7835 104.16
670 2 8.2853 4.7835 106.113
671 3 10.1264 4.7835 106.764
672 2 10.1264 4.7835 108.717
673 1 0.0 0.0 109.368
674 2 0.0 0.0 111.321
675 1 1.8412 0.0 111.972
676 2 1.8412 0.0 113.925
677 1 2.7618 1.5945 109.368
678 2 2.7618 1.5945 111.321
679 1 4.6029 1.5945 111.972
680 2 4.6029 1.5945 113.925
681 1 5.5235 0.0 109.368
682 2 5.5235 0.0 111.321
683 3 7.3647 0.0 111.972
684 2 7.3647 0.0 113.925
685 1 8.2853 1.5945 109.368
686 2 8.2853 1.5945 111.321
687 3 10.1264 1.5945 111.972
688 2 10.1264 1.5945 113.925
689 3 0.0 3.189 109.368
690 2 0.0 3.189 111.321
691 3 1.8412 3.189 111.972
692 2 1.8412 3.189 113.925
693 1 2.7618 4.7835 109.368
694 2 2.7618 4.7835 111.321
695 3 4.6029 4.7835 111.972
696 2 4.6029 4.7835 113.925
697 3 5.5235 3.189 109.368
698 2 5.5235 3.189 111.321
699 3 7.3647 3.189 111.972
700 2 7.3647 3.189 113.925
701 3 8.2853 4.7835 109.368
702 2 8.2853 4.7835 111.321
703 1 10.1264 4.7835 111.972
704 2 10.1264 4.7835 113.925
705 1 0.0 0.0 114.576
706 2 0.0 0.0 116.529
707 3 1.8412 0.0 117.18
708 2 1.8412 0.0 119.133
709 3 2.7618 1.5945 114.576
710 2 2.7618 1.5945 116.529
711 1 4.6029 1.5945 117.18
712 2 4.6029 1.5945 119.133
713 1 5.5235 0.0 114.576
714 2 5.5235 0.0 116.529
715 3 7.3647 0.0 117.18
716 2 7.3647 0.0 119.133
717 3 8.2853 1.5945 114.576
718 2 8.2853 1.5945 116.529
719 3 10.1264 1.5945 117.18
720 2 10.1264 1.5945 119.133
721 3 0.0 3.189 114.576
722 2 0.0 3.189 116.529
723 1 1.8412 3.189 117.18
724 2 1.8412 3.189 119.133
725 1 2.7618 4.7835 114.576
726 2 2.7618 4.7835 116.529
727 1 4.6029 4.7835 117.18
728 2 4.6029 4.7835 119.133
729 3 5.5235 3.189 114.576
730 2 5.5235 3.189 116.529
731 1 7.3647 3.189 117.18
732 2 7.3647 3.189 119.133
733 3 8.2853 4.7835 114.576
734 2 8.2853 4.7835 116.529
735 1 10.1264 4.7835 117.18
736 2 10.1264 4.7835 119.133
737 1 0.0 0.0 119.784
738 2 0.0 0.0 121.737
739 1 1.8412 0.0 122.388
740 2 1.8412 0.0 124.341
741 3 2.7618 1.5945 119.784
742 2 2.7618 1.5945 121.737
743 1 4.6029 1.5945 122.388
744 2 4.6029 1.5945 124.341
745 3 5.5235 0.0 119.784
746 2 5.5235 0.0 121.737
747 3 7.3647 0.0 122.388
748 2 7.3647 0.0 124.341
749 1 8.2853 1.5945 119.784
750 2 8.2853 1.5945 121.737
751 3 10.1264 1.5945 122.388
752 2 10.1264 1.5945 124.341
753 3 0.0 3.189 119.784
754 2 0.0 3.189 121.737
755 1 1.8412 3.189 122.388
756 2 1.8412 3.189 124.341
757 1 2.7618 4.7835 119.784
758 2 2.7618 4.7835 121.737
759 1 4.6029 4.7835 122.388
760 2 4.6029 4.7835 124.341
761 1 5.5235 3.189 119.784
762 2 5.5235 3.189 121.737
763 3 7.3647 3.189 122.388
764 2 7.3647 3.189 124.341
765 3 8.2853 4.7835 119.784
766 2 8.2853 4.7835 121.737
767 3 10.1264 4.7835 122.388
768 2 10.1264 4.7835 124.341
769 3 0.0 0.0 124.992
770 2 0.0 0.0 126.945
771 3 1.8412 0.0 127.596
772 2 1.8412 0.0 129.549
773 1 2.7618 1.5945 124.992
774 2 2.7618 1.5945 126.945
775 1 4.6029 1.5945 127.596
776 2 4.6029 1.5945 129.549
777 3 5.5235 0.0 124.992
778 2 5.5235 0.0 126.945
779 1 7.3647 0.0 127.596
780 2 7.3647 0.0 129.549
781 1 8.2853 1.5945 124.992
782 2 8.2853 1.5945 126.945
783 3 10.1264 1.5945 127.596
784 2 10.1264 1.5945 129.549
785 1 0.0 3.189 124.992
786 2 0.0 3.189 126.945
787 3 1.8412 3.189 127.596
788 2 1.8412 3.189 129.549
789 3 2.7618 4.7835 124.992
790 2 2.7618 4.7835 126.945
791 3 4.6029 4.7835 127.596
792 2 4.6029 4.7835 129.549
793 3 5.5235 3.189 124.992
794 2 5.5235 3.189 126.945
795 1 7.3647 3.189 127.596
796 2 7.3647 3.189 129.549
797 1 8.2853 4.7835 124.992
798 2 8.2853 4.7835 126.945
799 3 10.1264 4.7835 127.596
800 2 10.1264 4.7835 129.549
801 3 0.0 0.0 130.2
802 2 0.0 0.0 132.153
803 3 1.8412 0.0 132.804
804 2 1.8412 0.0 134.757
805 3 2.7618 1.5945 130.2
806 2 2.7618 1.5945 132.153
807 1 4.6029 1.5945 132.804
808 2 4.6029 1.5945 134.757
809 3 5.5235 0.0 130.2
810 2 5.5235 0.0 132.153
811 1 7.3647 0.0 132.804
812 2 7.3647 0.0 134.757
813 1 8.2853 1.5945 130.2
814 2 8.2853 1.5945 132.153
815 3 10.1264 1.5945 132.804
816 2 10.1264 1.5945 134.757
817 1 0.0 3.189 130.2
818 2 0.0 3.189 132.153
819 3 1.8412 3.189 132.804
820 2 1.8412 3.189 134.757
821 1 2.7618 4.7835 130.2
822 2 2.7618 4.7835 132.153
823 3 4.6029 4.7835 132.804
824 2 4.6029 4.7835 134.757
825 1 5.5235 3.189 130.2
826 2 5.5235 3.189 132.153
827 1 7.3647 3.189 132.804
828 2 7.3647 3.189 134.757
829 3 8.2853 4.7835 130.2
830 2 8.2853 4.7835 132.153
831 3 10.1264 4.7835 132.804
832 2 10.1264 4.7835 134.757
833 1 0.0 0.0 135.408
834 2 0.0 0.0 137.361
835 1 1.8412 0.0 138.012
836 2 1.8412 0.0 139.965
837 1 2.7618 1.5945 135.408
838 2 2.7618 1.5945 137.361
839 1 4.6029 1.5945 138.012
840 2 4.6029 1.5945 139.965
841 1 5.5235 0.0 135.408
842 2 5.5235 0.0 137.361
843 1 7.3647 0.0 138.012
844 2 7.3647 0.0 139.965
845 1 8.2853 1.5945 135.408
846 2 8.2853 1.5945 137.361
847 3 10.1264 1.5945 138.012
848 2 10.1264 1.5945 139.965
849 1 0.0 3.189 135.408
850 2 0.0 3.189 137.361
851 1 1.8412 3.189 138.012
852 2 1.8412 3.189 139.965
853 3 2.7618 4.7835 135.408
854 2 2.7618 4.7835 137.361
855 3 4.6029 4.7835 138.012
856 2 4.6029 4.7835 139.965
857 1 5.5235 3.189 135.408
858 2 5.5235 3.189 137.361
859 1 7.3647 3.189 138.012
860 2 7.3647 3.189 139.965
861 1 8.2853 4.7835 135.408
862 2 8.2853 4.7835 137.361
863 1 10.1264 4.7835 138.012
864 2 10.1264 4.7835 139.965
865 3 0.0 0.0 140.616
866 2 0.0 0.0 142.569
867 1 1.8412 0.0 143.22
868 2 1.8412 0.0 145.173
869 3 2.7618 1.5945 140.616
870 2 2.7618 1.5945 142.569
871 1 4.6029 1.5945 143.22
872 2 4.6029 1.5945 145.173
873 1 5.5235 0.0 140.616
874 2 5.5235 0.0 142.569
875 1 7.3647 0.0 143.22
876 2 7.3647 0.0 145.173
877 3 8.2853 1.5945 140.616
878 2 8.2853 1.5945 142.569
879 1 10.1264 1.5945 143.22
880 2 10.1264 1.5945 145.173
881 1 0.0 3.189 140.616
882 2 0.0 3.189 142.569
883 1 1.8412 3.189 143.22
884 2 1.8412 3.189 145.173
885 3 2.7618 4.7835 140.616
886 2 2.7618 4.7835 142.569
887 1 4.6029 4.7835 143.22
888 2 4.6029 4.7835 145.173
889 1 5.5235 3.189 140.616
890 2 5.5235 3.189 142.569
891 1 7.3647 3.189 143.22
892 2 7.3647 3.189 145.173
893 3 8.2853 4.7835 140.616
894 2 8.2853 4.7835 142.569
895 1 10.1264 4.7835 143.22
896 2 10.1264 4.7835 145.173
897 1 0.0 0.0 145.824
898 2 0.0 0.0 147.777
899 3 1.8412 0.0 148.428
900 2 1.8412 0.0 150.381
901 3 2.7618 1.5945 145.824
902 2 2.7618 1.5945 147.777
903 1 4.6029 1.5945 148.428
904 2 4.6029 1.5945 150.381
905 3 5.5235 0.0 145.824
906 2 5.5235 0.0 147.777
907 1 7.3647 0.0 148.428
908 2 7.3647 0.0 150.381
909 1 8.2853 1.5945 145.824
910 2 8.2853 1.5945 147.777
911 1 10.1264 1.5945 148.428
912 2 10.1264 1.5945 150.381
913 1 0.0 3.189 145.824
914 2 0.0 3.189 147.777
915 3 1.8412 3.189 148.428
916 2 1.8412 3.189 150.381
917 1 2.7618 4.7835 145.824
918 2 2.7618 4.7835 147.777
919 3 4.6029 4.7835 148.428
920 2 4.6029 4.7835 150.381
921 1 5.5235 3.189 145.824
922 2 5.5235 3.189 147.777
923 1 7.3647 3.189 148.428
924 2 7.3647 3.189 150.381
925 1 8.2853 4.7835 145.824
926 2 8.2853 4.7835 147.777
927 1 10.1264 4.7835 148.428
928 2 10.1264 4.7835 150.381
929 1 0.0 0.0 151.032
930 2 0.0 0.0 152.985
931 3 1.8412 0.0 153.636
932 2 1.8412 0.0 155.589
933 1 2.7618 1.5945 151.032
934 2 2.7618 1.5945 152.985
935 3 4.6029 1.5945 153.636
936 2 4.6029 1.5945 155.589
937 1 5.5235 0.0 151.032
938 2 5.5235 0.0 152.985
939 3 7.3647 0.0 153.636
940 2 7.3647 0.0 155.589
941 1 8.2853 1.5945 151.032
942 2 8.2853 1.5945 152.985
943 1 10.1264 1.5945 153.636
944 2 10.1264 1.5945 155.589
945 3 0.0 3.189 151.032
946 2 0.0 3.189 152.985
947 1 1.8412 3.189 153.636
948 2 1.8412 3.189 155.589
949 3 2.7618 4.7835 151.032
950 2 2.7618 4.7835 152.985
951 3 4.6029 4.7835 153.636
952 2 4.6029 4.7835 155.589
953 3 5.5235 3.189 151.032
954 2 5.5235 3.189 152.985
955 1 7.3647 3.189 153.636
956 2 7.3647 3.189 155.589
957 3 8.2853 4.7835 151.032
958 2 8.2853 4.7835 152.985
959 1 10.1264 4.7835 153.636
960 2 10.1264 4.7835 155.589
961 1 0.0 0.0 156.24
962 2 0.0 0.0 158.193
963 1 1.8412 0.0 158.844
964 2 1.8412 0.0 160.797
965 1 2.7618 1.5945 156.24
966 2 2.7618 1.5945 158.193
967 1 4.6029 1.5945 158.844
968 2 4.6029 1.5945 160.797
969 1 5.5235 0.0 156.24
970 2 5.5235 0.0 158.193
971 1 7.3647 0.0 158.844
972 2 7.3647 0.0 160.797
973 3 8.2853 1.5945 156.24
974 2 8.2853 1.5945 158.193
975 3 10.1264 1.5945 158.844
976 2 10.1264 1.5945 160.797
977 1 0.0 3.189 156.24
978 2 0.0 3.189 158.193
979 1 1.8412 3.189 158.844
980 2 1.8412 3.189 160.797
981 3 2.7618 4.7835 156.24
982 2 2.7618 4.7835 158.193
983 1 4.6029 4.7835 158.844
984 2 4.6029 4.7835 160.797
985 1 5.5235 3.189 156.24
986 2 5.5235 3.189 158.193
987 1 7.3647 3.189 158.844
988 2 7.3647 3.189 160.797
989 1 8.2853 4.7835 156.24
990 2 8.2853 4.7835 158.193
991 1 10.1264 4.7835 158.844
992 2 10.1264 4.7835 160.797
993 1 0.0 0.0 161.448
994 2 0.0 0.0 163.401
995 3 1.8412 0.0 164.052
996 2 1.8412 0.0 166.005
997 1 2.7618 1.5945 161.448
998 2 2.7618 1.5945 163.401
999 1 4.6029 1.5945 164.052
1000 2 4.6029 1.5945 166.005
1001 1 5.5235 0.0 161.448
1002 2 5.5235 0.0 163.401
1003 1 7.3647 0.0 164.052
1004 2 7.3647 0.0 166.005
1005 3 8.2853 1.5945 161.448
1006 2 8.2853 1.5945 163.401
1007 1 10.1264 1.5945 164.052
1008 2 10.1264 1.5945 166.005
1009 3 0.0 3.189 161.448
1010 2 0.0 3.189 163.401
1011 1 1.8412 3.189 164.052
1012 2 1.8412 3.189 166.005
1013 3 2.7618 4.7835 161.448
1014 2 2.7618 4.7835 163.401
1015 3 4.6029 4.7835 164.052
1016 2 4.6029 4.7835 166.005
1017 3 5.5235 3.189 161.448
1018 2 5.5235 3.189 163.401
1019 1 7.3647 3.189 164.052
1020 2 7.3647 3.189 166.005
1021 1 8.2853 4.7835 161.448
1022 2 8.2853 4.7835 163.401
1023 1 10.1264 4.7835 164.052
1024 2 10.1264 4.7835 166.005
1025 1 0.0 0.0 166.656
1026 2 0.0 0.0 168.609
1027 3 1.8412 0.0 169.26
1028 2 1.8412 0.0 171.213
1029 3 2.7618 1.5945 166.656
1030 2 2.7618 1.5945 168.609
1031 1 4.6029 1.5945 169.26
1032 2 4.6029 1.5945 171.213
1033 1 5.5235 0.0 166.656
1034 2 5.5235 0.0 168.609
1035 1 7.3647 0.0 169.26
1036 2 7.3647 0.0 171.213
1037 3 8.2853 1.5945 166.656
1038 2 8.2853 1.5945 168.609
1039 1 10.1264 1.5945 169.26
1040 2 10.1264 1.5945 171.213
1041 3 0.0 3.189 166.656
1042 2 0.0 3.189 168.609
1043 3 1.8412 3.189 169.26
1044 2 1.8412 3.189 171.213
1045 1 2.7618 4.7835 166.656
1046 2 2.7618 4.7835 168.609
1047 1 4.6029 4.7835 169.26
1048 2 4.6029 4.7835 171.213
1049 3 5.5235 3.189 166.656
1050 2 5.5235 3.189 168.609
1051 1 7.3647 3.189 169.26
1052 2 7.3647 3.189 171.213
1053 1 8.2853 4.7835 166.656
1054 2 8.2853 4.7835 168.609
1055 3 10.1264 4.7835 169.26
1056 2 10.1264 4.7835 171.213
1057 3 0.0 0.0 171.864
1058 2 0.0 0.0 173.817
1059 1 1.8412 0.0 174.468
1060 2 1.8412 0.0 176.421
1061 1 2.7618 1.5945 171.864
1062 2 2.7618 1.5945 173.817
1063 1 4.6029 1.5945 174.468
1064 2 4.6029 1.5945 176.421
1065 1 5.5235 0.0 171.864
1066 2 5.5235 0.0 173.817
1067 3 7.3647 0.0 174.468
1068 2 7.3647 0.0 176.421
1069 3 8.2853 1.5945 171.864
1070 2 8.2853 1.5945 173.817
1071 1 10.1264 1.5945 174.468
1072 2 10.1264 1.5945 176.421
1073 3 0.0 3.189 171.864
1074 2 0.0 3.189 173.817
1075 1 1.8412 3.189 174.468
1076 2 1.8412 3.189 176.421
1077 1 2.7618 4.7835 171.864
1078 2 2.7618 4.7835 173.817
1079 3 4.6029 4.7835 174.468
1080 2 4.6029 4.7835 176.421
1081 1 5.5235 3.189 171.864
1082 2 5.5235 3.189 173.817
1083 1 7.3647 3.189 174.468
1084 2 7.3647 3.189 176.421
1085 1 8.2853 4.7835 171.864
1086 2 8.2853 4.7835 173.817
1087 1 10.1264 4.7835 174.468
1088 2 10.1264 4.7835 176.421
1089 1 0.0 0.0 177.072
1090 2 0.0 0.0 179.025
1091 3 1.8412 0.0 179.676
1092 2 1.8412 0.0 181.629
1093 3 2.7618 1.5945 177.072
1094 2 2.7618 1.5945 179.025
1095 1 4.6029 1.5945 179.676
1096 2 4.6029 1.5945 181.629
1097 3 5.5235 0.0 177.072
1098 2 5.5235 0.0 179.025
1099 3 7.3647 0.0 179.676
1100 2 7.3647 0.0 181.629
1101 3 8.2853 1.5945 177.072
1102 2 8.2853 1.5945 179.025
1103 1 10.1264 1.5945 179.676
1104 2 10.1264 1.5945 181.629
1105 1 0.0 3.189 177.072
1106 2 0.0 3.189 179.025
1107 3 1.8412 3.189 179.676
1108 2 1.8412 3.189 181.629
1109 1 2.7618 4.7835 177.072
1110 2 2.7618 4.7835 179.025
1111 1 4.6029 4.7835 179.676
1112 2 4.6029 4.7835 181.629
1113 1 5.5235 3.189 177.072
1114 2 5.5235 3.189 179.025
1115 3 7.3647 3.189 179.676
1116 2 7.3647 3.189 181.629
1117 3 8.2853 4.7835 177.072
1118 2 8.2853 4.7835 179.025
1119 1 10.1264 4.7835 179.676
1120 2 10.1264 4.7835 181.629
1121 1 0.0 0.0 182.28
1122 2 0.0 0.0 184.233
1123 1 1.8412 0.0 184.884
1124 2 1.8412 0.0 186.837
1125 1 2.7618 1.5945 182.28
1126 2 2.7618 1.5945 184.233
1127 1 4.6029 1.5945 184.884
1128 2 4.6029 1.5945 186.837
1129 3 5.5235 0.0 182.28
1130 2 5.5235 0.0 184.233
1131 1 7.3647 0.0 184.884
1132 2 7.3647 0.0 186.837
1133 3 8.2853 1.5945 182.28
1134 2 8.2853 1.5945 184.233
1135 3 10.1264 1.5945 184.884
1136 2 10.1264 1.5945 186.837
1137 1 0.0 3.189 182.28
1138 2 0.0 3.189 184.233
1139 1 1.8412 3.189 184.884
1140 2 1.8412 3.189 186.837
1141 3 2.7618 4.7835 182.28
1142 2 2.7618 4.7835 184.233
1143 3 4.6029 4.7835 184.884
1144 2 4.6029 4.7835 186.837