LAMMPS DATA FILE FOR SED

19200 atoms

1 atom types

-0.678875 3661.5531971288474 xlo xhi
-1.038875 3.708875 ylo yhi
-0.678875 18.609875000000002 zlo zhi

Masses

1 28.0855

Atoms

1 1 0.0 1.78 1.78
2 1 0.0 1.78 5.35
3 1 0.0 0.0 3.57
4 1 0.5476638655462185 -0.36 0.0
5 1 0.8214957983193278 3.03 6.25
6 1 1.3539467787114847 0.89 0.89
7 1 1.3539467787114847 2.68 2.68
8 1 1.3539467787114847 0.89 4.46
9 1 2.7078935574229694 0.0 1.78
10 1 2.7078935574229694 0.0 5.35
11 1 2.7078935574229694 1.78 3.57
12 1 3.255557422969188 1.43 0.0
13 1 4.077053221288516 2.68 0.89
14 1 4.077053221288516 0.89 2.68
15 1 4.077053221288516 2.68 4.46
16 1 4.609504201680672 0.54 6.25
17 1 4.883336134453781 0.36 0.0
18 1 5.431 0.0 3.57
19 1 5.431 1.78 1.78
20 1 5.431 1.78 5.35
21 1 6.784946778711484 0.89 0.89
22 1 6.784946778711484 0.89 4.46
23 1 6.784946778711484 2.68 2.68
24 1 7.332610644257704 2.32 6.25
25 1 7.606442577030813 2.14 0.0
26 1 8.13889355742297 0.0 1.78
27 1 8.13889355742297 0.0 5.35
28 1 8.13889355742297 1.78 3.57
29 1 8.960389355742297 1.25 6.25
30 1 9.508053221288515 0.89 2.68
31 1 9.508053221288515 2.68 4.46
32 1 9.508053221288515 2.68 0.89
33 1 10.862 1.78 1.78
34 1 10.862 0.0 3.57
35 1 10.862 1.78 5.35
36 1 11.40966386554622 -0.36 0.0
37 1 11.683495798319328 3.03 6.25
38 1 12.215946778711485 2.68 2.68
39 1 12.215946778711485 0.89 0.89
40 1 12.215946778711485 0.89 4.46
41 1 13.569893557422969 0.0 5.35
42 1 13.569893557422969 1.78 3.57
43 1 13.569893557422969 0.0 1.78
44 1 14.117557422969188 1.43 0.0
45 1 14.939053221288516 2.68 0.89
46 1 14.939053221288516 0.89 2.68
47 1 14.939053221288516 2.68 4.46
48 1 15.471504201680673 0.54 6.25
49 1 15.745336134453781 0.36 0.0
50 1 16.293000000000003 1.78 1.78
51 1 16.293000000000003 0.0 3.57
52 1 16.293000000000003 1.78 5.35
53 1 17.646946778711484 0.89 4.46
54 1 17.646946778711484 2.68 2.68
55 1 17.646946778711484 0.89 0.89
56 1 18.194610644257708 2.32 6.25
57 1 18.468442577030814 2.14 0.0
58 1 19.00089355742297 0.0 1.78
59 1 19.00089355742297 0.0 5.35
60 1 19.00089355742297 1.78 3.57
61 1 19.822389355742295 1.25 6.25
62 1 20.37005322128852 2.68 4.46
63 1 20.37005322128852 2.68 0.89
64 1 20.37005322128852 0.89 2.68
65 1 21.724 1.78 5.35
66 1 21.724 1.78 1.78
67 1 21.724 0.0 3.57
68 1 22.27166386554622 -0.36 0.0
69 1 22.54549579831933 3.03 6.25
70 1 23.077946778711485 0.89 0.89
71 1 23.077946778711485 2.68 2.68
72 1 23.077946778711485 0.89 4.46
73 1 24.43189355742297 0.0 1.78
74 1 24.43189355742297 1.78 3.57
75 1 24.43189355742297 0.0 5.35
76 1 24.97955742296919 1.43 0.0
77 1 25.80105322128852 0.89 2.68
78 1 25.80105322128852 2.68 4.46
79 1 25.80105322128852 2.68 0.89
80 1 26.33350420168067 0.54 6.25
81 1 26.607336134453778 0.36 0.0
82 1 27.155000000000005 1.78 1.78
83 1 27.155000000000005 1.78 5.35
84 1 27.155000000000005 0.0 3.57
85 1 28.508946778711486 2.68 2.68
86 1 28.508946778711486 0.89 4.46
87 1 28.508946778711486 0.89 0.89
88 1 29.056610644257706 2.32 6.25
89 1 29.330442577030816 2.14 0.0
90 1 29.862893557422968 0.0 1.78
91 1 29.862893557422968 1.78 3.57
92 1 29.862893557422968 0.0 5.35
93 1 30.6843893557423 1.25 6.25
94 1 31.23205322128852 2.68 0.89
95 1 31.23205322128852 0.89 2.68
96 1 31.23205322128852 2.68 4.46
97 1 36.66305322128852 1.78 1.78
98 1 36.66305322128852 1.78 5.35
99 1 36.66305322128852 0.0 3.57
100 1 37.21071708683474 -0.36 0.0
101 1 37.48454901960785 3.03 6.25
102 1 38.017 0.89 0.89
103 1 38.017 2.68 2.68
104 1 38.017 0.89 4.46
105 1 39.37094677871149 0.0 1.78
106 1 39.37094677871149 0.0 5.35
107 1 39.37094677871149 1.78 3.57
108 1 39.91861064425771 1.43 0.0
109 1 40.74010644257704 2.68 0.89
110 1 40.74010644257704 0.89 2.68
111 1 40.74010644257704 2.68 4.46
112 1 41.27255742296919 0.54 6.25
113 1 41.546389355742306 0.36 0.0
114 1 42.09405322128852 0.0 3.57
115 1 42.09405322128852 1.78 1.78
116 1 42.09405322128852 1.78 5.35
117 1 43.44800000000001 0.89 0.89
118 1 43.44800000000001 0.89 4.46
119 1 43.44800000000001 2.68 2.68
120 1 43.99566386554623 2.32 6.25
121 1 44.26949579831933 2.14 0.0
122 1 44.80194677871149 0.0 1.78
123 1 44.80194677871149 0.0 5.35
124 1 44.80194677871149 1.78 3.57
125 1 45.623442577030815 1.25 6.25
126 1 46.171106442577035 0.89 2.68
127 1 46.171106442577035 2.68 4.46
128 1 46.171106442577035 2.68 0.89
129 1 47.52505322128852 1.78 1.78
130 1 47.52505322128852 0.0 3.57
131 1 47.52505322128852 1.78 5.35
132 1 48.07271708683474 -0.36 0.0
133 1 48.34654901960785 3.03 6.25
134 1 48.879000000000005 2.68 2.68
135 1 48.879000000000005 0.89 0.89
136 1 48.879000000000005 0.89 4.46
137 1 50.232946778711494 0.0 5.35
138 1 50.232946778711494 1.78 3.57
139 1 50.232946778711494 0.0 1.78
140 1 50.780610644257706 1.43 0.0
141 1 51.60210644257704 2.68 0.89
142 1 51.60210644257704 0.89 2.68
143 1 51.60210644257704 2.68 4.46
144 1 52.134557422969195 0.54 6.25
145 1 52.4083893557423 0.36 0.0
146 1 52.95605322128853 1.78 1.78
147 1 52.95605322128853 0.0 3.57
148 1 52.95605322128853 1.78 5.35
149 1 54.31 0.89 4.46
150 1 54.31 2.68 2.68
151 1 54.31 0.89 0.89
152 1 54.85766386554623 2.32 6.25
153 1 55.131495798319335 2.14 0.0
154 1 55.66394677871149 0.0 1.78
155 1 55.66394677871149 0.0 5.35
156 1 55.66394677871149 1.78 3.57
157 1 56.48544257703082 1.25 6.25
158 1 57.033106442577036 2.68 4.46
159 1 57.033106442577036 2.68 0.89
160 1 57.033106442577036 0.89 2.68
161 1 58.387053221288525 1.78 5.35
162 1 58.387053221288525 1.78 1.78
163 1 58.387053221288525 0.0 3.57
164 1 58.93471708683474 -0.36 0.0
165 1 59.20854901960785 3.03 6.25
166 1 59.74100000000001 0.89 0.89
167 1 59.74100000000001 2.68 2.68
168 1 59.74100000000001 0.89 4.46
169 1 61.09494677871149 0.0 1.78
170 1 61.09494677871149 1.78 3.57
171 1 61.09494677871149 0.0 5.35
172 1 61.642610644257715 1.43 0.0
173 1 62.46410644257704 0.89 2.68
174 1 62.46410644257704 2.68 4.46
175 1 62.46410644257704 2.68 0.89
176 1 62.99655742296919 0.54 6.25
177 1 63.270389355742296 0.36 0.0
178 1 63.81805322128852 1.78 1.78
179 1 63.81805322128852 1.78 5.35
180 1 63.81805322128852 0.0 3.57
181 1 65.17200000000001 2.68 2.68
182 1 65.17200000000001 0.89 4.46
183 1 65.17200000000001 0.89 0.89
184 1 65.71966386554622 2.32 6.25
185 1 65.99349579831934 2.14 0.0
186 1 66.52594677871149 0.0 1.78
187 1 66.52594677871149 1.78 3.57
188 1 66.52594677871149 0.0 5.35
189 1 67.34744257703082 1.25 6.25
190 1 67.89510644257705 2.68 0.89
191 1 67.89510644257705 0.89 2.68
192 1 67.89510644257705 2.68 4.46
193 1 73.32610644257704 1.78 1.78
194 1 73.32610644257704 1.78 5.35
195 1 73.32610644257704 0.0 3.57
196 1 73.87377030812326 -0.36 0.0
197 1 74.14760224089636 3.03 6.25
198 1 74.68005322128852 0.89 0.89
199 1 74.68005322128852 2.68 2.68
200 1 74.68005322128852 0.89 4.46
201 1 76.03400000000002 0.0 1.78
202 1 76.03400000000002 0.0 5.35
203 1 76.03400000000002 1.78 3.57
204 1 76.58166386554623 1.43 0.0
205 1 77.40315966386555 2.68 0.89
206 1 77.40315966386555 0.89 2.68
207 1 77.40315966386555 2.68 4.46
208 1 77.93561064425771 0.54 6.25
209 1 78.20944257703083 0.36 0.0
210 1 78.75710644257704 0.0 3.57
211 1 78.75710644257704 1.78 1.78
212 1 78.75710644257704 1.78 5.35
213 1 80.11105322128853 0.89 0.89
214 1 80.11105322128853 0.89 4.46
215 1 80.11105322128853 2.68 2.68
216 1 80.65871708683474 2.32 6.25
217 1 80.93254901960785 2.14 0.0
218 1 81.465 0.0 1.78
219 1 81.465 0.0 5.35
220 1 81.465 1.78 3.57
221 1 82.28649579831934 1.25 6.25
222 1 82.83415966386556 0.89 2.68
223 1 82.83415966386556 2.68 4.46
224 1 82.83415966386556 2.68 0.89
225 1 84.18810644257704 1.78 1.78
226 1 84.18810644257704 0.0 3.57
227 1 84.18810644257704 1.78 5.35
228 1 84.73577030812326 -0.36 0.0
229 1 85.00960224089637 3.03 6.25
230 1 85.54205322128853 2.68 2.68
231 1 85.54205322128853 0.89 0.89
232 1 85.54205322128853 0.89 4.46
233 1 86.89600000000002 0.0 5.35
234 1 86.89600000000002 1.78 3.57
235 1 86.89600000000002 0.0 1.78
236 1 87.44366386554623 1.43 0.0
237 1 88.26515966386556 2.68 0.89
238 1 88.26515966386556 0.89 2.68
239 1 88.26515966386556 2.68 4.46
240 1 88.79761064425772 0.54 6.25
241 1 89.07144257703082 0.36 0.0
242 1 89.61910644257705 1.78 1.78
243 1 89.61910644257705 0.0 3.57
244 1 89.61910644257705 1.78 5.35
245 1 90.97305322128852 0.89 4.46
246 1 90.97305322128852 2.68 2.68
247 1 90.97305322128852 0.89 0.89
248 1 91.52071708683475 2.32 6.25
249 1 91.79454901960786 2.14 0.0
250 1 92.32700000000001 0.0 1.78
251 1 92.32700000000001 0.0 5.35
252 1 92.32700000000001 1.78 3.57
253 1 93.14849579831935 1.25 6.25
254 1 93.69615966386556 2.68 4.46
255 1 93.69615966386556 2.68 0.89
256 1 93.69615966386556 0.89 2.68
257 1 95.05010644257705 1.78 5.35
258 1 95.05010644257705 1.78 1.78
259 1 95.05010644257705 0.0 3.57
260 1 95.59777030812326 -0.36 0.0
261 1 95.87160224089638 3.03 6.25
262 1 96.40405322128854 0.89 0.89
263 1 96.40405322128854 2.68 2.68
264 1 96.40405322128854 0.89 4.46
265 1 97.75800000000001 0.0 1.78
266 1 97.75800000000001 1.78 3.57
267 1 97.75800000000001 0.0 5.35
268 1 98.30566386554624 1.43 0.0
269 1 99.12715966386557 0.89 2.68
270 1 99.12715966386557 2.68 4.46
271 1 99.12715966386557 2.68 0.89
272 1 99.65961064425771 0.54 6.25
273 1 99.93344257703082 0.36 0.0
274 1 100.48110644257704 1.78 1.78
275 1 100.48110644257704 1.78 5.35
276 1 100.48110644257704 0.0 3.57
277 1 101.83505322128853 2.68 2.68
278 1 101.83505322128853 0.89 4.46
279 1 101.83505322128853 0.89 0.89
280 1 102.38271708683475 2.32 6.25
281 1 102.65654901960787 2.14 0.0
282 1 103.18900000000001 0.0 1.78
283 1 103.18900000000001 1.78 3.57
284 1 103.18900000000001 0.0 5.35
285 1 104.01049579831934 1.25 6.25
286 1 104.55815966386557 2.68 0.89
287 1 104.55815966386557 0.89 2.68
288 1 104.55815966386557 2.68 4.46
289 1 109.98915966386556 1.78 1.78
290 1 109.98915966386556 1.78 5.35
291 1 109.98915966386556 0.0 3.57
292 1 110.53682352941178 -0.36 0.0
293 1 110.81065546218488 3.03 6.25
294 1 111.34310644257704 0.89 0.89
295 1 111.34310644257704 2.68 2.68
296 1 111.34310644257704 0.89 4.46
297 1 112.69705322128854 0.0 1.78
298 1 112.69705322128854 0.0 5.35
299 1 112.69705322128854 1.78 3.57
300 1 113.24471708683475 1.43 0.0
301 1 114.06621288515407 2.68 0.89
302 1 114.06621288515407 0.89 2.68
303 1 114.06621288515407 2.68 4.46
304 1 114.59866386554623 0.54 6.25
305 1 114.87249579831935 0.36 0.0
306 1 115.42015966386556 0.0 3.57
307 1 115.42015966386556 1.78 1.78
308 1 115.42015966386556 1.78 5.35
309 1 116.77410644257705 0.89 0.89
310 1 116.77410644257705 0.89 4.46
311 1 116.77410644257705 2.68 2.68
312 1 117.32177030812326 2.32 6.25
313 1 117.59560224089637 2.14 0.0
314 1 118.12805322128852 0.0 1.78
315 1 118.12805322128852 0.0 5.35
316 1 118.12805322128852 1.78 3.57
317 1 118.94954901960786 1.25 6.25
318 1 119.49721288515408 0.89 2.68
319 1 119.49721288515408 2.68 4.46
320 1 119.49721288515408 2.68 0.89
321 1 120.85115966386556 1.78 1.78
322 1 120.85115966386556 0.0 3.57
323 1 120.85115966386556 1.78 5.35
324 1 121.39882352941179 -0.36 0.0
325 1 121.67265546218489 3.03 6.25
326 1 122.20510644257705 2.68 2.68
327 1 122.20510644257705 0.89 0.89
328 1 122.20510644257705 0.89 4.46
329 1 123.55905322128854 0.0 5.35
330 1 123.55905322128854 1.78 3.57
331 1 123.55905322128854 0.0 1.78
332 1 124.10671708683475 1.43 0.0
333 1 124.92821288515408 2.68 0.89
334 1 124.92821288515408 0.89 2.68
335 1 124.92821288515408 2.68 4.46
336 1 125.46066386554624 0.54 6.25
337 1 125.73449579831934 0.36 0.0
338 1 126.28215966386557 1.78 1.78
339 1 126.28215966386557 0.0 3.57
340 1 126.28215966386557 1.78 5.35
341 1 127.63610644257705 0.89 4.46
342 1 127.63610644257705 2.68 2.68
343 1 127.63610644257705 0.89 0.89
344 1 128.18377030812326 2.32 6.25
345 1 128.4576022408964 2.14 0.0
346 1 128.99005322128852 0.0 1.78
347 1 128.99005322128852 0.0 5.35
348 1 128.99005322128852 1.78 3.57
349 1 129.81154901960787 1.25 6.25
350 1 130.35921288515408 2.68 4.46
351 1 130.35921288515408 2.68 0.89
352 1 130.35921288515408 0.89 2.68
353 1 131.71315966386555 1.78 5.35
354 1 131.71315966386555 1.78 1.78
355 1 131.71315966386555 0.0 3.57
356 1 132.26082352941177 -0.36 0.0
357 1 132.5346554621849 3.03 6.25
358 1 133.06710644257706 0.89 0.89
359 1 133.06710644257706 2.68 2.68
360 1 133.06710644257706 0.89 4.46
361 1 134.42105322128853 0.0 1.78
362 1 134.42105322128853 1.78 3.57
363 1 134.42105322128853 0.0 5.35
364 1 134.96871708683477 1.43 0.0
365 1 135.7902128851541 0.89 2.68
366 1 135.7902128851541 2.68 4.46
367 1 135.7902128851541 2.68 0.89
368 1 136.32266386554625 0.54 6.25
369 1 136.59649579831932 0.36 0.0
370 1 137.14415966386557 1.78 1.78
371 1 137.14415966386557 1.78 5.35
372 1 137.14415966386557 0.0 3.57
373 1 138.49810644257707 2.68 2.68
374 1 138.49810644257707 0.89 4.46
375 1 138.49810644257707 0.89 0.89
376 1 139.04577030812328 2.32 6.25
377 1 139.3196022408964 2.14 0.0
378 1 139.85205322128854 0.0 1.78
379 1 139.85205322128854 1.78 3.57
380 1 139.85205322128854 0.0 5.35
381 1 140.67354901960786 1.25 6.25
382 1 141.2212128851541 2.68 0.89
383 1 141.2212128851541 0.89 2.68
384 1 141.2212128851541 2.68 4.46
385 1 146.65221288515409 1.78 1.78
386 1 146.65221288515409 1.78 5.35
387 1 146.65221288515409 0.0 3.57
388 1 147.1998767507003 -0.36 0.0
389 1 147.4737086834734 3.03 6.25
390 1 148.00615966386556 0.89 0.89
391 1 148.00615966386556 2.68 2.68
392 1 148.00615966386556 0.89 4.46
393 1 149.36010644257706 0.0 1.78
394 1 149.36010644257706 0.0 5.35
395 1 149.36010644257706 1.78 3.57
396 1 149.90777030812328 1.43 0.0
397 1 150.7292661064426 2.68 0.89
398 1 150.7292661064426 0.89 2.68
399 1 150.7292661064426 2.68 4.46
400 1 151.26171708683475 0.54 6.25
401 1 151.53554901960786 0.36 0.0
402 1 152.08321288515407 0.0 3.57
403 1 152.08321288515407 1.78 1.78
404 1 152.08321288515407 1.78 5.35
405 1 153.43715966386557 0.89 0.89
406 1 153.43715966386557 0.89 4.46
407 1 153.43715966386557 2.68 2.68
408 1 153.98482352941178 2.32 6.25
409 1 154.2586554621849 2.14 0.0
410 1 154.79110644257705 0.0 1.78
411 1 154.79110644257705 0.0 5.35
412 1 154.79110644257705 1.78 3.57
413 1 155.61260224089636 1.25 6.25
414 1 156.1602661064426 0.89 2.68
415 1 156.1602661064426 2.68 4.46
416 1 156.1602661064426 2.68 0.89
417 1 157.51421288515408 1.78 1.78
418 1 157.51421288515408 0.0 3.57
419 1 157.51421288515408 1.78 5.35
420 1 158.06187675070032 -0.36 0.0
421 1 158.3357086834734 3.03 6.25
422 1 158.86815966386558 2.68 2.68
423 1 158.86815966386558 0.89 0.89
424 1 158.86815966386558 0.89 4.46
425 1 160.22210644257706 0.0 5.35
426 1 160.22210644257706 1.78 3.57
427 1 160.22210644257706 0.0 1.78
428 1 160.76977030812327 1.43 0.0
429 1 161.59126610644262 2.68 0.89
430 1 161.59126610644262 0.89 2.68
431 1 161.59126610644262 2.68 4.46
432 1 162.12371708683474 0.54 6.25
433 1 162.39754901960788 0.36 0.0
434 1 162.9452128851541 1.78 1.78
435 1 162.9452128851541 0.0 3.57
436 1 162.9452128851541 1.78 5.35
437 1 164.29915966386557 0.89 4.46
438 1 164.29915966386557 2.68 2.68
439 1 164.29915966386557 0.89 0.89
440 1 164.84682352941178 2.32 6.25
441 1 165.1206554621849 2.14 0.0
442 1 165.65310644257704 0.0 1.78
443 1 165.65310644257704 0.0 5.35
444 1 165.65310644257704 1.78 3.57
445 1 166.4746022408964 1.25 6.25
446 1 167.0222661064426 2.68 4.46
447 1 167.0222661064426 2.68 0.89
448 1 167.0222661064426 0.89 2.68
449 1 168.37621288515408 1.78 5.35
450 1 168.37621288515408 1.78 1.78
451 1 168.37621288515408 0.0 3.57
452 1 168.9238767507003 -0.36 0.0
453 1 169.19770868347342 3.03 6.25
454 1 169.73015966386558 0.89 0.89
455 1 169.73015966386558 2.68 2.68
456 1 169.73015966386558 0.89 4.46
457 1 171.08410644257705 0.0 1.78
458 1 171.08410644257705 1.78 3.57
459 1 171.08410644257705 0.0 5.35
460 1 171.6317703081233 1.43 0.0
461 1 172.4532661064426 0.89 2.68
462 1 172.4532661064426 2.68 4.46
463 1 172.4532661064426 2.68 0.89
464 1 172.98571708683477 0.54 6.25
465 1 173.25954901960785 0.36 0.0
466 1 173.8072128851541 1.78 1.78
467 1 173.8072128851541 1.78 5.35
468 1 173.8072128851541 0.0 3.57
469 1 175.1611596638656 2.68 2.68
470 1 175.1611596638656 0.89 4.46
471 1 175.1611596638656 0.89 0.89
472 1 175.7088235294118 2.32 6.25
473 1 175.9826554621849 2.14 0.0
474 1 176.51510644257706 0.0 1.78
475 1 176.51510644257706 1.78 3.57
476 1 176.51510644257706 0.0 5.35
477 1 177.33660224089638 1.25 6.25
478 1 177.88426610644262 2.68 0.89
479 1 177.88426610644262 0.89 2.68
480 1 177.88426610644262 2.68 4.46
481 1 183.3152661064426 1.78 1.78
482 1 183.3152661064426 1.78 5.35
483 1 183.3152661064426 0.0 3.57
484 1 183.86292997198882 -0.36 0.0
485 1 184.13676190476193 3.03 6.25
486 1 184.66921288515408 0.89 0.89
487 1 184.66921288515408 2.68 2.68
488 1 184.66921288515408 0.89 4.46
489 1 186.02315966386558 0.0 1.78
490 1 186.02315966386558 0.0 5.35
491 1 186.02315966386558 1.78 3.57
492 1 186.5708235294118 1.43 0.0
493 1 187.39231932773112 2.68 0.89
494 1 187.39231932773112 0.89 2.68
495 1 187.39231932773112 2.68 4.46
496 1 187.92477030812327 0.54 6.25
497 1 188.19860224089638 0.36 0.0
498 1 188.7462661064426 0.0 3.57
499 1 188.7462661064426 1.78 1.78
500 1 188.7462661064426 1.78 5.35
501 1 190.1002128851541 0.89 0.89
502 1 190.1002128851541 0.89 4.46
503 1 190.1002128851541 2.68 2.68
504 1 190.6478767507003 2.32 6.25
505 1 190.9217086834734 2.14 0.0
506 1 191.45415966386557 0.0 1.78
507 1 191.45415966386557 0.0 5.35
508 1 191.45415966386557 1.78 3.57
509 1 192.2756554621849 1.25 6.25
510 1 192.82331932773113 0.89 2.68
511 1 192.82331932773113 2.68 4.46
512 1 192.82331932773113 2.68 0.89
513 1 194.1772661064426 1.78 1.78
514 1 194.1772661064426 0.0 3.57
515 1 194.1772661064426 1.78 5.35
516 1 194.72492997198884 -0.36 0.0
517 1 194.99876190476192 3.03 6.25
518 1 195.5312128851541 2.68 2.68
519 1 195.5312128851541 0.89 0.89
520 1 195.5312128851541 0.89 4.46
521 1 196.88515966386558 0.0 5.35
522 1 196.88515966386558 1.78 3.57
523 1 196.88515966386558 0.0 1.78
524 1 197.4328235294118 1.43 0.0
525 1 198.25431932773114 2.68 0.89
526 1 198.25431932773114 0.89 2.68
527 1 198.25431932773114 2.68 4.46
528 1 198.78677030812327 0.54 6.25
529 1 199.0606022408964 0.36 0.0
530 1 199.6082661064426 1.78 1.78
531 1 199.6082661064426 0.0 3.57
532 1 199.6082661064426 1.78 5.35
533 1 200.9622128851541 0.89 4.46
534 1 200.9622128851541 2.68 2.68
535 1 200.9622128851541 0.89 0.89
536 1 201.5098767507003 2.32 6.25
537 1 201.78370868347344 2.14 0.0
538 1 202.31615966386556 0.0 1.78
539 1 202.31615966386556 0.0 5.35
540 1 202.31615966386556 1.78 3.57
541 1 203.1376554621849 1.25 6.25
542 1 203.68531932773112 2.68 4.46
543 1 203.68531932773112 2.68 0.89
544 1 203.68531932773112 0.89 2.68
545 1 205.0392661064426 1.78 5.35
546 1 205.0392661064426 1.78 1.78
547 1 205.0392661064426 0.0 3.57
548 1 205.5869299719888 -0.36 0.0
549 1 205.86076190476194 3.03 6.25
550 1 206.3932128851541 0.89 0.89
551 1 206.3932128851541 2.68 2.68
552 1 206.3932128851541 0.89 4.46
553 1 207.74715966386557 0.0 1.78
554 1 207.74715966386557 1.78 3.57
555 1 207.74715966386557 0.0 5.35
556 1 208.29482352941181 1.43 0.0
557 1 209.11631932773113 0.89 2.68
558 1 209.11631932773113 2.68 4.46
559 1 209.11631932773113 2.68 0.89
560 1 209.6487703081233 0.54 6.25
561 1 209.92260224089637 0.36 0.0
562 1 210.4702661064426 1.78 1.78
563 1 210.4702661064426 1.78 5.35
564 1 210.4702661064426 0.0 3.57
565 1 211.8242128851541 2.68 2.68
566 1 211.8242128851541 0.89 4.46
567 1 211.8242128851541 0.89 0.89
568 1 212.37187675070032 2.32 6.25
569 1 212.64570868347343 2.14 0.0
570 1 213.17815966386559 0.0 1.78
571 1 213.17815966386559 1.78 3.57
572 1 213.17815966386559 0.0 5.35
573 1 213.9996554621849 1.25 6.25
574 1 214.54731932773115 2.68 0.89
575 1 214.54731932773115 0.89 2.68
576 1 214.54731932773115 2.68 4.46
577 1 219.97831932773113 1.78 1.78
578 1 219.97831932773113 1.78 5.35
579 1 219.97831932773113 0.0 3.57
580 1 220.52598319327734 -0.36 0.0
581 1 220.79981512605045 3.03 6.25
582 1 221.3322661064426 0.89 0.89
583 1 221.3322661064426 2.68 2.68
584 1 221.3322661064426 0.89 4.46
585 1 222.6862128851541 0.0 1.78
586 1 222.6862128851541 0.0 5.35
587 1 222.6862128851541 1.78 3.57
588 1 223.23387675070032 1.43 0.0
589 1 224.05537254901964 2.68 0.89
590 1 224.05537254901964 0.89 2.68
591 1 224.05537254901964 2.68 4.46
592 1 224.5878235294118 0.54 6.25
593 1 224.8616554621849 0.36 0.0
594 1 225.4093193277311 0.0 3.57
595 1 225.4093193277311 1.78 1.78
596 1 225.4093193277311 1.78 5.35
597 1 226.76326610644261 0.89 0.89
598 1 226.76326610644261 0.89 4.46
599 1 226.76326610644261 2.68 2.68
600 1 227.31092997198883 2.32 6.25
601 1 227.58476190476193 2.14 0.0
602 1 228.1172128851541 0.0 1.78
603 1 228.1172128851541 0.0 5.35
604 1 228.1172128851541 1.78 3.57
605 1 228.9387086834734 1.25 6.25
606 1 229.48637254901965 0.89 2.68
607 1 229.48637254901965 2.68 4.46
608 1 229.48637254901965 2.68 0.89
609 1 230.84031932773112 1.78 1.78
610 1 230.84031932773112 0.0 3.57
611 1 230.84031932773112 1.78 5.35
612 1 231.38798319327736 -0.36 0.0
613 1 231.66181512605044 3.03 6.25
614 1 232.19426610644263 2.68 2.68
615 1 232.19426610644263 0.89 0.89
616 1 232.19426610644263 0.89 4.46
617 1 233.5482128851541 0.0 5.35
618 1 233.5482128851541 1.78 3.57
619 1 233.5482128851541 0.0 1.78
620 1 234.0958767507003 1.43 0.0
621 1 234.91737254901966 2.68 0.89
622 1 234.91737254901966 0.89 2.68
623 1 234.91737254901966 2.68 4.46
624 1 235.4498235294118 0.54 6.25
625 1 235.72365546218492 0.36 0.0
626 1 236.27131932773113 1.78 1.78
627 1 236.27131932773113 0.0 3.57
628 1 236.27131932773113 1.78 5.35
629 1 237.6252661064426 0.89 4.46
630 1 237.6252661064426 2.68 2.68
631 1 237.6252661064426 0.89 0.89
632 1 238.17292997198882 2.32 6.25
633 1 238.44676190476196 2.14 0.0
634 1 238.97921288515408 0.0 1.78
635 1 238.97921288515408 0.0 5.35
636 1 238.97921288515408 1.78 3.57
637 1 239.80070868347343 1.25 6.25
638 1 240.34837254901964 2.68 4.46
639 1 240.34837254901964 2.68 0.89
640 1 240.34837254901964 0.89 2.68
641 1 241.70231932773112 1.78 5.35
642 1 241.70231932773112 1.78 1.78
643 1 241.70231932773112 0.0 3.57
644 1 242.24998319327733 -0.36 0.0
645 1 242.52381512605047 3.03 6.25
646 1 243.05626610644262 0.89 0.89
647 1 243.05626610644262 2.68 2.68
648 1 243.05626610644262 0.89 4.46
649 1 244.4102128851541 0.0 1.78
650 1 244.4102128851541 1.78 3.57
651 1 244.4102128851541 0.0 5.35
652 1 244.95787675070034 1.43 0.0
653 1 245.77937254901966 0.89 2.68
654 1 245.77937254901966 2.68 4.46
655 1 245.77937254901966 2.68 0.89
656 1 246.3118235294118 0.54 6.25
657 1 246.5856554621849 0.36 0.0
658 1 247.13331932773113 1.78 1.78
659 1 247.13331932773113 1.78 5.35
660 1 247.13331932773113 0.0 3.57
661 1 248.48726610644263 2.68 2.68
662 1 248.48726610644263 0.89 4.46
663 1 248.48726610644263 0.89 0.89
664 1 249.03492997198884 2.32 6.25
665 1 249.30876190476195 2.14 0.0
666 1 249.8412128851541 0.0 1.78
667 1 249.8412128851541 1.78 3.57
668 1 249.8412128851541 0.0 5.35
669 1 250.66270868347343 1.25 6.25
670 1 251.21037254901967 2.68 0.89
671 1 251.21037254901967 0.89 2.68
672 1 251.21037254901967 2.68 4.46
673 1 256.64137254901965 1.78 1.78
674 1 256.64137254901965 1.78 5.35
675 1 256.64137254901965 0.0 3.57
676 1 257.18903641456586 -0.36 0.0
677 1 257.46286834733894 3.03 6.25
678 1 257.9953193277311 0.89 0.89
679 1 257.9953193277311 2.68 2.68
680 1 257.9953193277311 0.89 4.46
681 1 259.34926610644266 0.0 1.78
682 1 259.34926610644266 0.0 5.35
683 1 259.34926610644266 1.78 3.57
684 1 259.8969299719888 1.43 0.0
685 1 260.71842577030816 2.68 0.89
686 1 260.71842577030816 0.89 2.68
687 1 260.71842577030816 2.68 4.46
688 1 261.2508767507003 0.54 6.25
689 1 261.5247086834734 0.36 0.0
690 1 262.07237254901963 0.0 3.57
691 1 262.07237254901963 1.78 1.78
692 1 262.07237254901963 1.78 5.35
693 1 263.4263193277311 0.89 0.89
694 1 263.4263193277311 0.89 4.46
695 1 263.4263193277311 2.68 2.68
696 1 263.9739831932774 2.32 6.25
697 1 264.24781512605045 2.14 0.0
698 1 264.7802661064426 0.0 1.78
699 1 264.7802661064426 0.0 5.35
700 1 264.7802661064426 1.78 3.57
701 1 265.60176190476193 1.25 6.25
702 1 266.1494257703082 0.89 2.68
703 1 266.1494257703082 2.68 4.46
704 1 266.1494257703082 2.68 0.89
705 1 267.5033725490197 1.78 1.78
706 1 267.5033725490197 0.0 3.57
707 1 267.5033725490197 1.78 5.35
708 1 268.0510364145659 -0.36 0.0
709 1 268.32486834733896 3.03 6.25
710 1 268.85731932773115 2.68 2.68
711 1 268.85731932773115 0.89 0.89
712 1 268.85731932773115 0.89 4.46
713 1 270.2112661064426 0.0 5.35
714 1 270.2112661064426 1.78 3.57
715 1 270.2112661064426 0.0 1.78
716 1 270.75892997198883 1.43 0.0
717 1 271.5804257703082 2.68 0.89
718 1 271.5804257703082 0.89 2.68
719 1 271.5804257703082 2.68 4.46
720 1 272.1128767507003 0.54 6.25
721 1 272.38670868347344 0.36 0.0
722 1 272.93437254901966 1.78 1.78
723 1 272.93437254901966 0.0 3.57
724 1 272.93437254901966 1.78 5.35
725 1 274.28831932773113 0.89 4.46
726 1 274.28831932773113 2.68 2.68
727 1 274.28831932773113 0.89 0.89
728 1 274.83598319327734 2.32 6.25
729 1 275.1098151260505 2.14 0.0
730 1 275.6422661064426 0.0 1.78
731 1 275.6422661064426 0.0 5.35
732 1 275.6422661064426 1.78 3.57
733 1 276.46376190476195 1.25 6.25
734 1 277.01142577030816 2.68 4.46
735 1 277.01142577030816 2.68 0.89
736 1 277.01142577030816 0.89 2.68
737 1 278.36537254901964 1.78 5.35
738 1 278.36537254901964 1.78 1.78
739 1 278.36537254901964 0.0 3.57
740 1 278.91303641456585 -0.36 0.0
741 1 279.186868347339 3.03 6.25
742 1 279.7193193277311 0.89 0.89
743 1 279.7193193277311 2.68 2.68
744 1 279.7193193277311 0.89 4.46
745 1 281.0732661064426 0.0 1.78
746 1 281.0732661064426 1.78 3.57
747 1 281.0732661064426 0.0 5.35
748 1 281.62092997198886 1.43 0.0
749 1 282.4424257703082 0.89 2.68
750 1 282.4424257703082 2.68 4.46
751 1 282.4424257703082 2.68 0.89
752 1 282.97487675070033 0.54 6.25
753 1 283.2487086834734 0.36 0.0
754 1 283.7963725490197 1.78 1.78
755 1 283.7963725490197 1.78 5.35
756 1 283.7963725490197 0.0 3.57
757 1 285.15031932773115 2.68 2.68
758 1 285.15031932773115 0.89 4.46
759 1 285.15031932773115 0.89 0.89
760 1 285.69798319327737 2.32 6.25
761 1 285.9718151260505 2.14 0.0
762 1 286.5042661064426 0.0 1.78
763 1 286.5042661064426 1.78 3.57
764 1 286.5042661064426 0.0 5.35
765 1 287.325761904762 1.25 6.25
766 1 287.8734257703082 2.68 0.89
767 1 287.8734257703082 0.89 2.68
768 1 287.8734257703082 2.68 4.46
769 1 293.30442577030817 1.78 1.78
770 1 293.30442577030817 1.78 5.35
771 1 293.30442577030817 0.0 3.57
772 1 293.8520896358544 -0.36 0.0
773 1 294.12592156862746 3.03 6.25
774 1 294.65837254901965 0.89 0.89
775 1 294.65837254901965 2.68 2.68
776 1 294.65837254901965 0.89 4.46
777 1 296.0123193277312 0.0 1.78
778 1 296.0123193277312 0.0 5.35
779 1 296.0123193277312 1.78 3.57
780 1 296.55998319327733 1.43 0.0
781 1 297.3814789915967 2.68 0.89
782 1 297.3814789915967 0.89 2.68
783 1 297.3814789915967 2.68 4.46
784 1 297.9139299719888 0.54 6.25
785 1 298.18776190476194 0.36 0.0
786 1 298.73542577030815 0.0 3.57
787 1 298.73542577030815 1.78 1.78
788 1 298.73542577030815 1.78 5.35
789 1 300.08937254901963 0.89 0.89
790 1 300.08937254901963 0.89 4.46
791 1 300.08937254901963 2.68 2.68
792 1 300.6370364145659 2.32 6.25
793 1 300.910868347339 2.14 0.0
794 1 301.4433193277311 0.0 1.78
795 1 301.4433193277311 0.0 5.35
796 1 301.4433193277311 1.78 3.57
797 1 302.26481512605045 1.25 6.25
798 1 302.8124789915967 0.89 2.68
799 1 302.8124789915967 2.68 4.46
800 1 302.8124789915967 2.68 0.89
801 1 304.1664257703082 1.78 1.78
802 1 304.1664257703082 0.0 3.57
803 1 304.1664257703082 1.78 5.35
804 1 304.7140896358544 -0.36 0.0
805 1 304.9879215686275 3.03 6.25
806 1 305.52037254901967 2.68 2.68
807 1 305.52037254901967 0.89 0.89
808 1 305.52037254901967 0.89 4.46
809 1 306.87431932773114 0.0 5.35
810 1 306.87431932773114 1.78 3.57
811 1 306.87431932773114 0.0 1.78
812 1 307.42198319327736 1.43 0.0
813 1 308.2434789915967 2.68 0.89
814 1 308.2434789915967 0.89 2.68
815 1 308.2434789915967 2.68 4.46
816 1 308.77592997198883 0.54 6.25
817 1 309.04976190476197 0.36 0.0
818 1 309.5974257703082 1.78 1.78
819 1 309.5974257703082 0.0 3.57
820 1 309.5974257703082 1.78 5.35
821 1 310.95137254901965 0.89 4.46
822 1 310.95137254901965 2.68 2.68
823 1 310.95137254901965 0.89 0.89
824 1 311.49903641456586 2.32 6.25
825 1 311.772868347339 2.14 0.0
826 1 312.3053193277311 0.0 1.78
827 1 312.3053193277311 0.0 5.35
828 1 312.3053193277311 1.78 3.57
829 1 313.1268151260505 1.25 6.25
830 1 313.6744789915967 2.68 4.46
831 1 313.6744789915967 2.68 0.89
832 1 313.6744789915967 0.89 2.68
833 1 315.02842577030816 1.78 5.35
834 1 315.02842577030816 1.78 1.78
835 1 315.02842577030816 0.0 3.57
836 1 315.5760896358544 -0.36 0.0
837 1 315.8499215686275 3.03 6.25
838 1 316.38237254901964 0.89 0.89
839 1 316.38237254901964 2.68 2.68
840 1 316.38237254901964 0.89 4.46
841 1 317.7363193277311 0.0 1.78
842 1 317.7363193277311 1.78 3.57
843 1 317.7363193277311 0.0 5.35
844 1 318.2839831932774 1.43 0.0
845 1 319.1054789915967 0.89 2.68
846 1 319.1054789915967 2.68 4.46
847 1 319.1054789915967 2.68 0.89
848 1 319.63792997198885 0.54 6.25
849 1 319.91176190476193 0.36 0.0
850 1 320.4594257703082 1.78 1.78
851 1 320.4594257703082 1.78 5.35
852 1 320.4594257703082 0.0 3.57
853 1 321.8133725490197 2.68 2.68
854 1 321.8133725490197 0.89 4.46
855 1 321.8133725490197 0.89 0.89
856 1 322.3610364145659 2.32 6.25
857 1 322.634868347339 2.14 0.0
858 1 323.16731932773115 0.0 1.78
859 1 323.16731932773115 1.78 3.57
860 1 323.16731932773115 0.0 5.35
861 1 323.9888151260505 1.25 6.25
862 1 324.5364789915967 2.68 0.89
863 1 324.5364789915967 0.89 2.68
864 1 324.5364789915967 2.68 4.46
865 1 329.9674789915967 1.78 1.78
866 1 329.9674789915967 1.78 5.35
867 1 329.9674789915967 0.0 3.57
868 1 330.5151428571429 -0.36 0.0
869 1 330.788974789916 3.03 6.25
870 1 331.32142577030817 0.89 0.89
871 1 331.32142577030817 2.68 2.68
872 1 331.32142577030817 0.89 4.46
873 1 332.6753725490197 0.0 1.78
874 1 332.6753725490197 0.0 5.35
875 1 332.6753725490197 1.78 3.57
876 1 333.22303641456585 1.43 0.0
877 1 334.0445322128852 2.68 0.89
878 1 334.0445322128852 0.89 2.68
879 1 334.0445322128852 2.68 4.46
880 1 334.57698319327733 0.54 6.25
881 1 334.85081512605046 0.36 0.0
882 1 335.3984789915967 0.0 3.57